
                                 *****************
                                 * O   R   C   A *
                                 *****************

                                            #,                                       
                                            ###                                      
                                            ####                                     
                                            #####                                    
                                            ######                                   
                                           ########,                                 
                                     ,,################,,,,,                         
                               ,,#################################,,                 
                          ,,##########################################,,             
                       ,#########################################, ''#####,          
                    ,#############################################,,   '####,        
                  ,##################################################,,,,####,       
                ,###########''''           ''''###############################       
              ,#####''   ,,,,##########,,,,          '''####'''          '####       
            ,##' ,,,,###########################,,,                        '##       
           ' ,,###''''                  '''############,,,                           
         ,,##''                                '''############,,,,        ,,,,,,###''
      ,#''                                            '''#######################'''  
     '                                                          ''''####''''         
             ,#######,   #######,   ,#######,      ##                                
            ,#'     '#,  ##    ##  ,#'     '#,    #''#        ,####,    ,#,          
            ##       ##  ##   ,#'  ##            #'  '#       #'       ,# #          
            ##       ##  #######   ##           ,######,      #####,      #          
            '#,     ,#'  ##    ##  '#,     ,#' ,#      #,     #,   #      #          
             '#######'   ##     ##  '#######'  #'      '#     '####' #    #          



                #########################################################
                #                        -***-                          #
                #          Department of theory and spectroscopy        #
                #                                                       #
                #                      Frank Neese                      #
                #                                                       #
                #     Directorship, Architecture, Infrastructure        #
                #                    SHARK, DRIVERS                     #
                #        Core code/Algorithms in most modules           #
                #                                                       #
                #        Max Planck Institute fuer Kohlenforschung      #
                #                Kaiser Wilhelm Platz 1                 #
                #                 D-45470 Muelheim/Ruhr                 #
                #                      Germany                          #
                #                                                       #
                #                  All rights reserved                  #
                #                        -***-                          #
                #########################################################


                         Program Version 6.1.0  -  RELEASE   -
                                (GIT: $679e74b$)
                          ($2025-06-10 18:02:51 +0200$)


 With contributions from (in alphabetic order):
[Max-Planck-Institut fuer Kohlenforschung]                               
  Daniel Aravena         : Magnetic Suceptibility                        
  Michael Atanasov       : Ab Initio Ligand Field Theory (pilot matlab implementation)
  Alexander A. Auer      : GIAO ZORA, VPT2 properties, NMR spectrum      
  Ute Becker             : All parallelization in ORCA, NUMFREQ, NUMCALC 
  Giovanni Bistoni       : ED, misc. LED, open-shell LED, HFLD           
  Dmytro Bykov           : pre 5.0 version of the SCF Hessian            
  Marcos Casanova-Páez   : Triplet and SCS-CIS(D). UHF-(DLPNO)-IP/EA/STEOM-CCSD. UHF-CVS-IP/STEOM-CCSD   
  Vijay G. Chilkuri      : MRCI spin determinant printing, contributions to CSF-ICE 
  Pauline Colinet        : FMM embedding                                 
  Dipayan Datta          : RHF DLPNO-CCSD density                        
  Achintya Kumar Dutta   : EOM-CC, STEOM-CC                              
  Nicolas Foglia         : Exact transition moments, OPA infrastructure, MCD improvements    
  Dmitry Ganyushin       : Spin-Orbit,Spin-Spin,Magnetic field MRCI      
  Miquel Garcia-Rates    : C-PCM and meta-GGA Hessian, CCSD/C-PCM, Gaussian charge scheme 
  Tiago L. C. Gouveia    : GS-ROHF, GS-ROCIS                             
  Yang Guo               : DLPNO-NEVPT2, F12-NEVPT2, CIM, IAO-localization        
  Andreas Hansen         : Spin unrestricted coupled pair/coupled cluster methods 
  Ingolf Harden          : AUTO-CI MPn and infrastructure                
  Benjamin Helmich-Paris : MC-RPA, TRAH-(SCF,CASSCF), AVAS, COSX integrals, SCF dyn. polar., MC-PDFT, srDFT 
  Lee Huntington         : MR-EOM, pCC                                   
  Robert Izsak           : Overlap fitted RIJCOSX, COSX-SCS-MP3, EOM     
  Riya Kayal             : Wick's Theorem for AUTO-CI, AUTO-CI UHF-CCSDT 
  Emily Kempfer          : AUTO-CI RHF CISDT and CCSDT, approximate NEVPT4
  Christian Kollmar      : KDIIS, OOCD, Brueckner-CCSD(T), CCSD density, CASPT2, CASPT2-K, improved NEVPT2 
  Axel Koslowski         : Symmetry handling                             
  Simone Kossmann        : meta-GGA functionals, TD-DFT gradient, OOMP2, (MP2 Hessian; deprecated post 5.0) 
  Lucas Lang             : DCDCAS, Hyperfine gauge corrections, ICE-SOC+SSC
  Marvin Lechner         : AUTO-CI (C++ implementation), FIC-MRCC        
  Spencer Leger          : CASSCF response                               
  Dagmar Lenk            : GEPOL surface, SMD, ORCA-2-JSON               
  Dimitrios Liakos       : Extrapolation schemes; Compound Job, Property file
  Dimitrios Manganas     : Further ROCIS development; embedding schemes. LFT, Crystal Embedding 
  Dimitrios Pantazis     : SARC Basis sets                               
  Anastasios Papadopoulos: AUTO-CI, single reference methods and gradients 
  Taras Petrenko         : pre 6.0 DFT Hessian and TD-DFT gradient,  ECA, NRVS 
  Petra Pikulova         : Analytic Raman intensities                    
  Peter Pinski           : DLPNO-MP2, DLPNO-MP2 Gradient                 
  Shashank Vittal Rao    : ES-AILFT, MagRelax                            
  Christoph Reimann      : Effective Core Potentials                     
  Marius Retegan         : Local ZFS, SOC                                
  Christoph Riplinger    : Optimizer, TS searches, QM/MM, DLPNO-CCSD(T), (RO)-DLPNO pert. Triples 
  Michael Roemelt        : Original ROCIS implementation, recursive CI coupling coefficients
  Masaaki Saitow         : Open-shell DLPNO-CCSD energy and density      
  Barbara Sandhoefer     : DKH picture change effects                    
  Yorick L. A. Schmerwitz: GMF and freeze-and-release deltaSCF, NEB S-IDPP initial path                    
  Kantharuban Sivalingam : CASSCF convergence/infrastructure, NEVPT2, NEVPT3, NEVPT4(SD), FIC-MRCI and CEPA variants
  Bernardo de Souza      : ESD, SOC TD-DFT                               
  Georgi L. Stoychev     : AutoAux, RI-MP2 NMR, DLPNO-MP2 response, X2C  
  Van Anh Tran           : RI-MP2 g-tensors                              
  Willem Van den Heuvel  : Paramagnetic NMR                              
  Zikuan Wang            : NOTCH, Electric field optimization            
  Frank Wennmohs         : Technical directorship and infrastructure     
  Hang Xu                : AUTO-CI-Response properties                   
                                                                         
[FACCTs GmbH]                                                            
  Markus Bursch, Nicolas Foglia, Miquel Garcia-Rates, Ingolf Harden, Hagen Neugebauer, Anastasios Papadopoulos, 
  Christoph Riplinger, Bernardo de Souza, Georgi L. Stoychev                                                    
                                                                 
  APM, various basis sets, CI-OPT, improved COSX, DLPNO-Multilevel,           
  DOCKER, DRACO, updates on ESD, Fragmentator, GOAT, IRC, LR-CPCM, L-BFGS, MBIS, meta-GGA TD-DFT gradient, ML-optimized integration grids, 
  MM, NACMEs, nearIR, NEB, NEB-TS, NL-DFT gradient (VV10), 2- and 3-layer-ONIOM, interface openCOSMO-RS, QMMM,   
  Crystal-QMMM, RESP, rigid body optimization, SF, symmetry and pop. for TD-DFT, various functionals, SOLVATOR                                   
                                                                         
[Other institutions]                                                     
  V. Asgeirsson          : NEB                                           
  Christoph Bannwarth    : sTDA-DFT, sTD-DFT, PBEh-3c, B97-3c, D3        
  Giovanni Bistoni       : ETS/NOCV, ADLD/ADEX, COVALED                  
  Martin Brehm           : Molecular dynamics                            
  Ronald Cardenas        : ETS/NOCV                                      
  Martina Colucci        : COVALED                                       
  Sebastian Ehlert       : rSCAN, r2SCAN, r2SCAN-3c, D4, dhf basis sets  
  Marvin Friede          : D4 for Fr, Ra, Ac-Lr                          
  Lars Goerigk           : TD-DFT with DH, B97 family of functionals     
  Stefan Grimme          : VdW corrections, initial TS optimization, DFT functionals, gCP, sTDA/sTD-DF 
  Waldemar Hujo          : DFT-NL                                        
  H. Jonsson             : NEB                                           
  Holger Kruse           : gCP                                           
  Marcel Mueller         : wB97X-3c, vDZP basis set                      
  Hagen Neugebauer       : wr2SCAN, Native XTB                           
  Gianluca Regni         : ADLD/ADEX                                     
  Tobias Risthaus        : pre 6.0 range-separated hybrid DFT and stability analysis
  Lukas Wittmann         : regularized MP2, r2SCAN double-hybrids, wr2SCAN        
                                                                         
We gratefully acknowledge several colleagues who have allowed us to      
interface, adapt or use parts of their codes:                            
  Ed Valeev, F. Pavosevic, A. Kumar             : LibInt (2-el integral package), F12 methods 
  Garnet Chan, S. Sharma, J. Yang, R. Olivares  : DMRG                   
  Ulf Ekstrom                                   : XCFun DFT Library      
  Mihaly Kallay                                 : mrcc  (arbitrary order and MRCC methods)
  Frank Weinhold                                : gennbo (NPA and NBO analysis)           
  Simon Mueller                                 : openCOSMO-RS                            
  Christopher J. Cramer and Donald G. Truhlar   : smd solvation model                     
  S Lehtola, MJT Oliveira, MAL Marques          : LibXC Library                           
  Liviu Ungur et al                             : ANISO software                          


 Your calculation uses the libint2 library for the computation of 2-el integrals
 For citations please refer to: http://libint.valeyev.net

 Your ORCA version has been built with support for libXC version: 7.0.0
 For citations please refer to: https://libxc.gitlab.io

 This ORCA versions uses:
   CBLAS   interface :  Fast vector & matrix operations
   LAPACKE interface :  Fast linear algebra routines
   SCALAPACK package :  Parallel linear algebra routines
   Shared memory     :  Shared parallel matrices
   BLAS/LAPACK       :  OpenBLAS 0.3.29  USE64BITINT DYNAMIC_ARCH NO_AFFINITY Haswell SINGLE_THREADED
        Core in use  :  Haswell
   Copyright (c) 2011-2014, The OpenBLAS Project


  ***********************************
  * Starting time: Tue Feb 17 18:06:23 2026
  * Host name:     node30
  * Process ID:    1407008
  * Working dir.:  /scratch/lgardre/134699
  ***********************************

NOTE: MaxCore=1000 MB was set to SCF,MP2,MDCI,CIPSI,MRCI,RASCI and CIS
      => If you want to overwrite this, your respective input block should be placed after the MaxCore statement
================================================================================

----- Orbital basis set information -----
Your calculation utilizes the basis: 6-31+G*
   H-He, Li-Ne : W. J. Hehre, R. Ditchfield and J.A. Pople, J. Chem. Phys. 56, 2257 (1972).
                 Note: He and Ne are unpublished basis sets taken from the Gaussian program.
                 Note: Li and B from J. D. Dill and J. A. Pople, J. Chem. Phys. 62, 2921 (1975).
   Na - Ar     : M. M. Francl, W. J. Pietro, W. J. Hehre, J. S. Binkley, M. S. Gordon, 
                 D. J. DeFrees and J. A. Pople, J. Chem. Phys. 77, 3654 (1982).
   K - Zn      : V. A. Rassolov, J. A. Pople, M. A. Ratner, and T. L. Windus, J. Chem. Phys. 109, 1223 (1998).
   Additional Pol./Diff. from the 6-311G equivalent.

================================================================================
                                        WARNINGS
                       Please study these warnings very carefully!
================================================================================


================================================================================
                                       INPUT FILE
================================================================================
NAME = o601acrolein_orca_HF.com
|  1> %pal nprocs 40
|  2>    end
|  3> !  HF
|  4> ! PrintBasis 6-31+G* PrintMOs
|  5> 
|  6> %output
|  7>     print[p_mos] 1
|  8>     print[P_OneElec] 1
|  9> end #output
| 10>  
| 11> %maxcore 1000
| 12> 
| 13> * xyz 0 1
| 14>     C   -1.752102   -0.142545   -0.000106
| 15>     C   -0.562831    0.448403    0.000249
| 16>     H   -1.837933   -1.224814   -0.000030
| 17>     H   -2.676050    0.422103   -0.000306
| 18>     H   -0.446147    1.526721   -0.000175
| 19>     C   0.675499    -0.348536    0.000071
| 20>     H   0.525077    -1.447883    0.000100
| 21>     O   1.783957     0.122493   -0.000109
| 22> *
| 23> 
| 24> 
| 25>                          ****END OF INPUT****
================================================================================

                       ****************************
                       * Single Point Calculation *
                       ****************************

---------------------------------
CARTESIAN COORDINATES (ANGSTROEM)
---------------------------------
  C     -1.752102   -0.142545   -0.000106
  C     -0.562831    0.448403    0.000249
  H     -1.837933   -1.224814   -0.000030
  H     -2.676050    0.422103   -0.000306
  H     -0.446147    1.526721   -0.000175
  C      0.675499   -0.348536    0.000071
  H      0.525077   -1.447883    0.000100
  O      1.783957    0.122493   -0.000109

----------------------------
CARTESIAN COORDINATES (A.U.)
----------------------------
  NO LB      ZA    FRAG     MASS         X           Y           Z
   0 C     6.0000    0    12.011   -3.310993   -0.269371   -0.000200
   1 C     6.0000    0    12.011   -1.063596    0.847359    0.000471
   2 H     1.0000    0     1.008   -3.473190   -2.314563   -0.000057
   3 H     1.0000    0     1.008   -5.057002    0.797659   -0.000578
   4 H     1.0000    0     1.008   -0.843096    2.885085   -0.000331
   5 C     6.0000    0    12.011    1.276508   -0.658638    0.000134
   6 H     1.0000    0     1.008    0.992252   -2.736102    0.000189
   7 O     8.0000    0    15.999    3.371190    0.231478   -0.000206

--------------------------------
INTERNAL COORDINATES (ANGSTROEM)
--------------------------------
 C      0   0   0     0.000000000000     0.00000000     0.00000000
 C      1   0   0     1.328000442835     0.00000000     0.00000000
 H      1   2   0     1.085667147287   120.95718851     0.00000000
 H      1   2   3     1.082823767105   122.14709170   179.98900902
 H      2   1   3     1.084612854781   122.59864498   179.97748331
 C      2   1   3     1.472607547959   120.81355365     0.03106361
 H      6   2   1     1.109590287148   114.97237733   359.97315834
 O      6   2   1     1.204386768860   124.21369228   179.97238961

---------------------------
INTERNAL COORDINATES (A.U.)
---------------------------
 C      0   0   0     0.000000000000     0.00000000     0.00000000
 C      1   0   0     2.509557142684     0.00000000     0.00000000
 H      1   2   0     2.051613580968   120.95718851     0.00000000
 H      1   2   3     2.046240371130   122.14709170   179.98900902
 H      2   1   3     2.049621256866   122.59864498   179.97748331
 C      2   1   3     2.782824968387   120.81355365     0.03106361
 H      6   2   1     2.096821763569   114.97237733   359.97315834
 O      6   2   1     2.275961152464   124.21369228   179.97238961

---------------------
BASIS SET INFORMATION
---------------------
There are 3 groups of distinct atoms

 Group   1 Type C   : 11s5p1d contracted to 4s3p1d pattern {6311/311/1}
 Group   2 Type H   : 4s contracted to 2s pattern {31}
 Group   3 Type O   : 11s5p1d contracted to 4s3p1d pattern {6311/311/1}

Atom   0C    basis set group =>   1
Atom   1C    basis set group =>   1
Atom   2H    basis set group =>   2
Atom   3H    basis set group =>   2
Atom   4H    basis set group =>   2
Atom   5C    basis set group =>   1
Atom   6H    basis set group =>   2
Atom   7O    basis set group =>   3

-------------------------
BASIS SET IN INPUT FORMAT
-------------------------

 # Basis set for element : H 
 NewGTO H 
 S 3 
   1      18.7311370000      0.0334945995
   2       2.8253937000      0.2347269467
   3       0.6401217000      0.8137573184
 S 1 
   1       0.1612778000      1.0000000000
  end;

 # Basis set for element : C 
 NewGTO C 
 S 6 
   1    3047.5249000000      0.0018347002
   2     457.3695100000      0.0140373012
   3     103.9486900000      0.0688426061
   4      29.2101550000      0.2321844206
   5       9.2866630000      0.4679413416
   6       3.1639270000      0.3623120322
 S 3 
   1       7.8682724000     -0.1193324086
   2       1.8812885000     -0.1608542116
   3       0.5442493000      1.1434564826
 P 3 
   1       7.8682724000      0.0689990956
   2       1.8812885000      0.3164239798
   3       0.5442493000      0.7443082524
 S 1 
   1       0.1687144000      1.0000000000
 P 1 
   1       0.1687144000      1.0000000000
 S 1 
   1       0.0438000000      1.0000000000
 P 1 
   1       0.0438000000      1.0000000000
 D 1 
   1       0.8000000000      1.0000000000
  end;

 # Basis set for element : O 
 NewGTO O 
 S 6 
   1    5484.6717000000      0.0018310998
   2     825.2349500000      0.0139500985
   3     188.0469600000      0.0684450927
   4      52.9645000000      0.2327142753
   5      16.8975700000      0.4701929501
   6       5.7996353000      0.3585208619
 S 3 
   1      15.5396160000     -0.1107775038
   2       3.5999336000     -0.1480263051
   3       1.0137618000      1.1307670390
 P 3 
   1      15.5396160000      0.0708742995
   2       3.5999336000      0.3397527978
   3       1.0137618000      0.7271585953
 S 1 
   1       0.2700058000      1.0000000000
 P 1 
   1       0.2700058000      1.0000000000
 S 1 
   1       0.0845000000      1.0000000000
 P 1 
   1       0.0845000000      1.0000000000
 D 1 
   1       0.8000000000      1.0000000000
  end;



           ************************************************************
           *        Program running with 40 parallel MPI-processes    *
           *              working on a common directory               *
           ************************************************************
------------------------------------------------------------------------------
                             ORCA STARTUP CALCULATIONS
------------------------------------------------------------------------------
------------------------------------------------------------------------------
                   ___                                                        
                  /   \      - P O W E R E D   B Y -                         
                 /     \                                                     
                 |  |  |   _    _      __       _____    __    __             
                 |  |  |  | |  | |    /  \     |  _  \  |  |  /  |          
                  \  \/   | |  | |   /    \    | | | |  |  | /  /          
                 / \  \   | |__| |  /  /\  \   | |_| |  |  |/  /          
                |  |  |   |  __  | /  /__\  \  |    /   |      \           
                |  |  |   | |  | | |   __   |  |    \   |  |\   \          
                \     /   | |  | | |  |  |  |  | |\  \  |  | \   \       
                 \___/    |_|  |_| |__|  |__|  |_| \__\ |__|  \__/        
                                                                              
                      - O R C A' S   B I G   F R I E N D -                    
                                      &                                       
                       - I N T E G R A L  F E E D E R -                       
                                                                              
 v1 FN, 2020, v2 2021, v3 2022-2024                                           
------------------------------------------------------------------------------


----------------------
SHARK INTEGRAL PACKAGE
----------------------

Number of atoms                             ...      8
Number of basis functions                   ...     80
Number of shells                            ...     40
Maximum angular momentum                    ...      2
Integral batch strategy                     ... SHARK/LIBINT Hybrid
RI-J (if used) integral strategy            ... SPLIT-RIJ (Revised 2003 algorithm where possible)
Printlevel                                  ...      1
Contraction scheme used                     ... SEGMENTED contraction
Prescreening option                         ... SCHWARTZ
   Thresh                                   ... 1.000e-10
   Tcut                                     ... 1.000e-11
   Tpresel                                  ... 1.000e-11 
Coulomb Range Separation                    ... NOT USED
Exchange Range Separation                   ... NOT USED
Multipole approximations                    ... NOT USED
Finite Nucleus Model                        ... NOT USED
CABS basis                                  ... NOT available
Auxiliary Coulomb fitting basis             ... NOT available
Auxiliary J/K fitting basis                 ... NOT available
Auxiliary Correlation fitting basis         ... NOT available
Auxiliary 'external' fitting basis          ... NOT available

Checking pre-screening integrals            ... done (  0.0 sec) Dimension = 40
   => SHARK Basis and OBASIS are compatible. Storing Pre-screening
Shell pair information
Shell pair cut-off parameter TPreSel        ...   1.0e-11
Total number of shell pairs                 ...       820
Shell pairs after pre-screening             ...       809
Total number of primitive shell pairs       ...      3666
Primitive shell pairs kept                  ...      2901
          la=0 lb=0:    293 shell pairs
          la=1 lb=0:    286 shell pairs
          la=1 lb=1:     78 shell pairs
          la=2 lb=0:     94 shell pairs
          la=2 lb=1:     48 shell pairs
          la=2 lb=2:     10 shell pairs

Checking whether 4 symmetric matrices of dimension 80 fit in memory
:Max Core in MB      =   1000.00
 MB in use           =      2.32
 MB left             =    997.68
 MB needed           =      0.10
 Data fit in memory  = YES
Calculating Nuclear repulsion               ... done (  0.0 sec) ENN=    103.418920705790 Eh

Diagonalization of the overlap matrix:
Smallest eigenvalue                        ... 1.111e-04
Time for diagonalization                   ...    0.002 sec
Threshold for overlap eigenvalues          ... 1.000e-07
Number of eigenvalues below threshold      ... 0
Time for construction of square roots      ...    0.001 sec
Total time needed                          ...    0.004 sec

-------------------
DFT GRID GENERATION
-------------------

General Integration Accuracy     IntAcc      ... 4.388
Radial Grid Type                 RadialGrid  ... OptM3 with GC (2021)
Angular Grid (max. ang.)         AngularGrid ... 4 (Lebedev-302)
Angular grid pruning method      GridPruning ... 4 (adaptive)
Weight generation scheme         WeightScheme... mBecke (2022)
Basis function cutoff            BFCut       ... 1.0000e-10
Integration weight cutoff        WCut        ... 1.0000e-14
Partially contracted basis set               ... off
Rotationally invariant grid construction     ... off
Angular grids for H and He will be reduced by one unit
Diffuse basis detected: some atoms will have their outermost
                        angular grid increased by 1.

Total number of grid points                  ...    38551
Total number of batches                      ...      606
Average number of points per batch           ...       63
Average number of grid points per atom       ...     4819
Grids setup in   0.4 sec
Initializing property integral containers    ... done (  0.0 sec)

SHARK setup successfully completed in   0.5 seconds

Maximum memory used throughout the entire STARTUP-calculation: 9.9 MB


           ************************************************************
           *        Program running with 40 parallel MPI-processes    *
           *              working on a common directory               *
           ************************************************************
-------------------------------------------------------------------------------
                                 ORCA GUESS
                   Start orbitals & Density for SCF / CASSCF
-------------------------------------------------------------------------------

------------
SCF SETTINGS
------------
Hamiltonian:
 Ab initio Hamiltonian  Method          .... Hartree-Fock(GTOs)


General Settings:
 Integral files         IntName         .... o601acrolein_orca_HF
 Hartree-Fock type      HFTyp           .... RHF
 Total Charge           Charge          ....    0
 Multiplicity           Mult            ....    1
 Number of Electrons    NEL             ....   30
 Basis Dimension        Dim             ....   80
 Nuclear Repulsion      ENuc            ....    103.4189207058 Eh

Convergence Acceleration:
 AO-DIIS                CNVDIIS         .... on
   Start iteration      DIISMaxIt       ....    12
   Startup error        DIISStart       ....  0.200000
   # of expansion vecs  DIISMaxEq       ....     5
   Bias factor          DIISBfac        ....   1.050
   Max. coefficient     DIISMaxC        ....  10.000
 MO-DIIS                CNVKDIIS        .... off
 Trust-Rad. Augm. Hess. CNVTRAH         .... auto
   Auto Start mean grad. ratio tolernc. ....  1.125000
   Auto Start start iteration           ....    50
   Auto Start num. interpolation iter.  ....    10
   Max. Number of Micro iterations      ....    24
   Max. Number of Macro iterations      .... Maxiter - #DIIS iter
   Number of Davidson start vectors     ....     2
   Converg. threshold    (grad. norm)   ....   5.000e-05
   Grad. Scal. Fac. for Micro threshold ....   0.100
   Minimum threshold for Micro iter.    ....   1.000e-02
   NR start threshold (gradient norm)   ....   1.000e-04
   Initial trust radius                 ....   0.400
   Minimum AH scaling param. (alpha)    ....   1.000
   Maximum AH scaling param. (alpha)    .... 1000.000
   Quad. conv. algorithm                .... NR
   White noise on init. David. guess    .... on
   Maximum white noise                  ....   0.010
   Pseudo random numbers                .... off
   Inactive MOs                         .... canonical
   Orbital update algorithm             .... Taylor
   Preconditioner                       .... Diag
   Full preconditioner red. dimension   ....   250
 SOSCF                 CNVSOSCF           .... on
   Start iteration     SOSCFMaxIt         ....   150
   Startup grad/error  SOSCFStart         ....  0.003300
   Hessian update      SOSCFHessUp        .... L-BFGS
   Autom. constraints  SOSCFAutoConstrain .... off
 Level Shifting         CNVShift        .... on
   Level shift para.    LevelShift      ....    0.2500
   Turn off err/grad.   ShiftErr        ....    0.0010
 Zerner damping         CNVZerner       .... off
 Static damping         CNVDamp         .... on
   Fraction old density DampFac         ....    0.7000
   Max. Damping (<1)    DampMax         ....    0.9800
   Min. Damping (>=0)   DampMin         ....    0.0000
   Turn off err/grad.   DampErr         ....    0.1000

SCF Procedure:
 Maximum # iterations   MaxIter         ....   125
 SCF integral mode      SCFMode         .... Direct
   Integral package                     .... SHARK and LIBINT hybrid scheme
 Reset frequency        DirectResetFreq ....    20
 Integral Threshold     Thresh          ....  1.000e-10 Eh
 Primitive CutOff       TCut            ....  1.000e-11 Eh

Convergence Tolerance:
 Convergence Check Mode ConvCheckMode   .... Total+1el-Energy
 Convergence forced     ConvForced      .... 0
 Energy Change          TolE            ....  1.000e-06 Eh
 1-El. energy change                    ....  1.000e-03 Eh
 Orbital Gradient       TolG            ....  5.000e-05
 Orbital Rotation angle TolX            ....  5.000e-05
 DIIS Error             TolErr          ....  1.000e-06

------------------------------
INITIAL GUESS: MODEL POTENTIAL
------------------------------
Loading Hartree-Fock densities                     ... done
Calculating cut-offs                               ... done
Initializing the effective Hamiltonian             ... done
Setting up the integral package (SHARK)            ... done
Starting the Coulomb interaction                   ... done (   0.0 sec)
Making the grid                                    ... done (   0.1 sec)
Mapping shells                                     ... done
Starting the XC term evaluation                    ... done (   0.0 sec)
Transforming the Hamiltonian                       ... done (   0.0 sec)
Diagonalizing the Hamiltonian                      ... done (   0.0 sec)
Back transforming the eigenvectors                 ... done (   0.0 sec)
Now organizing SCF variables                       ... done
                      ------------------
                      INITIAL GUESS DONE (   0.1 sec)
                      ------------------
             **** ENERGY FILE WAS UPDATED (o601acrolein_orca_HF.en.tmp) ****
Finished Guess after   0.9 sec
Maximum memory used throughout the entire GUESS-calculation: 4.6 MB


           ************************************************************
           *        Program running with 40 parallel MPI-processes    *
           *              working on a common directory               *
           ************************************************************

-------------------------------------------------------------------------------------------
                                      ORCA LEAN-SCF
                              memory conserving SCF solver
-------------------------------------------------------------------------------------------

------------------------
ONE ELECTRON MATRIX (AU)
------------------------
                  0          1          2          3          4          5    
      0     -24.260531  -5.043872  -0.000024  -0.110384  -0.031287  -4.326607
      1      -5.043872 -11.100705  -0.000170  -0.799743  -0.227034  -8.940502
      2      -0.000024  -0.000170 -10.141871  -0.000110  -0.000026  -0.000170
      3      -0.110384  -0.799743  -0.000110 -10.618621  -0.110255  -0.807260
      4      -0.031287  -0.227034  -0.000026  -0.110255 -10.362563  -0.228700
      5      -4.326607  -8.940502  -0.000170  -0.807260  -0.228700  -9.810611
      6      -0.000004  -0.000123  -5.346457  -0.000108  -0.000028  -0.000244
      7      -0.018544  -0.584527  -0.000108  -5.820462  -0.116252  -1.284196
      8      -0.005256  -0.165583  -0.000028  -0.116252  -5.547494  -0.335927
      9      -1.640325  -4.355746  -0.000094  -0.453786  -0.127676  -6.480116
     10      -0.000001  -0.000036  -1.532352  -0.000035  -0.000010  -0.000109
     11      -0.003737  -0.174904  -0.000035  -1.688029  -0.038674  -0.652862
     12      -0.001059  -0.049162  -0.000010  -0.038674  -1.595015  -0.148945
     13       0.009258   0.293259  -0.000108   0.430638   0.129082   0.330242
     14      -0.000005  -0.000160  -0.591349  -0.000194  -0.000058  -0.000182
     15      -0.000001  -0.000036  -0.160164  -0.000058  -0.000144  -0.000044
     16      -0.005658  -0.183701  -0.000025  -0.709240   0.017539  -0.217109
     17      -0.004842  -0.158063  -0.000058  -0.366203  -0.627997  -0.187340
     18      -0.000260  -0.527731  -0.000303  -1.018748  -0.504729  -1.638836
     19      -0.507051  -2.732107  -0.000971  -3.347671  -1.613713  -4.551206
     20       0.000292   0.000998  -1.388966   0.001370   0.000664   0.000929
     21       0.975951   3.239883   0.001298   3.041842   2.160259   2.700014
     22       0.485554   1.663959   0.000666   2.286593  -0.296675   1.538227
     23      -1.562002  -4.320882  -0.000825  -2.926130  -1.356183  -6.378592
     24       0.000827   0.001733  -2.470727   0.001148   0.000536   0.001776
     25       2.769884   5.679694   0.001059   1.241541   1.754508   5.345807
     26       1.377867   2.896534   0.000545   1.935087  -1.623122   2.980999
     27      -1.249863  -3.452701  -0.000258  -0.987840  -0.408669  -5.463577
     28       0.000347   0.000865  -1.206523   0.000223   0.000095   0.001166
     29       1.161095   2.849399   0.000188  -0.501874   0.307929   3.599154
     30       0.577564   1.447857   0.000101   0.385243  -1.081402   1.966125
     31       0.671341   1.535615   0.001420   1.476691   0.693156   0.784690
     32      -0.000557  -0.001286   1.878556  -0.001565  -0.001050  -0.000614
     33      -0.000277  -0.000662   0.963843  -0.001104   0.000048  -0.000341
     34      -0.701268  -1.539154  -0.000760  -0.689119  -2.237763  -0.687327
     35      -0.927411  -2.137919  -0.001048  -2.603645   0.147581  -0.992027
     36      -0.783611  -2.850043  -0.000265   0.175673   3.508604  -3.425116
     37      -2.175208  -5.111251  -0.000254  -0.203067   2.418708  -6.351249
     38      -0.790183  -2.772638   0.000619   2.850956  -1.817847  -3.278607
     39      -2.180132  -5.041133   0.000384   1.753025  -1.401910  -6.147901
     40      -0.001232  -0.116310   0.000001  -0.156260  -0.180232  -0.804617
     41      -0.347923  -1.334350  -0.000013  -0.941961  -1.009215  -2.744346
     42       0.000000  -0.000452  -0.000000  -0.001717   0.000144  -0.148328
     43      -0.000436  -0.059902  -0.000011  -0.129807   0.006449  -0.710210
     44       0.000000   0.000008  -0.023053   0.000017  -0.000002   0.000049
     45       0.001649   0.128971   0.000024   0.259899  -0.013844   0.818848
     46      -0.000142  -0.015503  -0.000004  -0.034090  -0.023797  -0.115479
     47      -0.139523  -0.682058  -0.000079  -0.821851   0.020409  -1.877353
     48       0.000037   0.000123  -0.368234   0.000143  -0.000012   0.000194
     49       0.505056   1.889304   0.000213   1.922174  -0.075109   3.421416
     50      -0.043135  -0.200310  -0.000032  -0.261009  -0.386232  -0.471022
     51      -0.655681  -1.922707  -0.000102  -0.900076  -0.016985  -3.359037
     52       0.000091   0.000228  -0.666982   0.000093  -0.000005   0.000312
     53       1.244891   3.323715   0.000162   0.836471   0.007291   4.877243
     54      -0.106214  -0.318963  -0.000024  -0.171977  -0.700109  -0.556636
     55       0.000141   0.055871   0.000014   0.121120  -0.005502   0.276578
     56      -0.000000  -0.000011   0.033678  -0.000027   0.000003  -0.000046
     57       0.000000   0.000001  -0.003570   0.000002   0.000002   0.000003
     58      -0.000241  -0.092477  -0.000019  -0.199292   0.017691  -0.431694
     59       0.000042   0.022737   0.000006   0.053189   0.033628   0.137007
     60      -0.000013  -0.008991  -0.000002  -0.019530   0.010613  -0.245214
     61      -0.091991  -0.456618  -0.000052  -0.491873   0.232441  -1.307667
     62       0.000000  -0.000000   0.000000  -0.000000  -0.000000  -0.002658
     63       0.000000  -0.000004  -0.000000  -0.000015  -0.000001  -0.015418
     64       0.000000  -0.000000  -0.000001  -0.000000  -0.000000  -0.000000
     65       0.000000   0.000011   0.000000   0.000043   0.000003   0.020623
     66       0.000000   0.000001   0.000000   0.000004  -0.000001   0.002217
     67      -0.000071  -0.004817  -0.000000  -0.010316  -0.001103  -0.118217
     68      -0.000000  -0.000000  -0.002565  -0.000001  -0.000000  -0.000008
     69       0.000457   0.021723   0.000001   0.043984   0.005056   0.308578
     70       0.000034   0.001274  -0.000000   0.002765  -0.002485   0.027191
     71      -0.064500  -0.276136  -0.000011  -0.285217  -0.034049  -0.795359
     72      -0.000000  -0.000007  -0.119598  -0.000011  -0.000003  -0.000038
     73       0.245489   0.905540   0.000034   0.813743   0.107589   2.011627
     74       0.018348   0.060602   0.000000   0.058363  -0.118382   0.127359
     75       0.000000   0.000078   0.000000   0.000269   0.000019   0.025664
     76       0.000000   0.000000   0.000032   0.000000   0.000000   0.000003
     77       0.000000   0.000000   0.000003   0.000000  -0.000000   0.000001
     78       0.000000  -0.000132  -0.000000  -0.000455  -0.000037  -0.042072
     79       0.000000  -0.000023  -0.000000  -0.000083   0.000028  -0.010926
                  6          7          8          9         10         11    
      0      -0.000004  -0.018544  -0.005256  -1.640325  -0.000001  -0.003737
      1      -0.000123  -0.584527  -0.165583  -4.355746  -0.000036  -0.174904
      2      -5.346457  -0.000108  -0.000028  -0.000094  -1.532352  -0.000035
      3      -0.000108  -5.820462  -0.116252  -0.453786  -0.000035  -1.688029
      4      -0.000028  -0.116252  -5.547494  -0.127676  -0.000010  -0.038674
      5      -0.000244  -1.284196  -0.335927  -6.480116  -0.000109  -0.652862
      6      -7.535355  -0.000238  -0.000069  -0.000214  -4.023399  -0.000121
      7      -0.000238  -8.734462  -0.277165  -1.281327  -0.000121  -4.761814
      8      -0.000069  -0.277165  -7.929327  -0.292324  -0.000033  -0.135137
      9      -0.000214  -1.281327  -0.292324  -7.062567  -0.000165  -1.381731
     10      -4.023399  -0.000121  -0.000033  -0.000165  -5.207153  -0.000112
     11      -0.000121  -4.761814  -0.135137  -1.381731  -0.000112  -6.361148
     12      -0.000033  -0.135137  -4.217003  -0.210486  -0.000022  -0.103066
     13      -0.000070   0.379175   0.116187   0.187389  -0.000019   0.115812
     14      -0.463666  -0.000180  -0.000064  -0.000104  -0.135891  -0.000056
     15      -0.122051  -0.000064  -0.000119  -0.000026  -0.035270  -0.000020
     16      -0.000031  -0.605616  -0.024585  -0.126889  -0.000010  -0.182831
     17      -0.000064  -0.347877  -0.514801  -0.109174  -0.000020  -0.106443
     18      -0.000867  -2.914276  -1.443511  -1.314981  -0.000364  -1.224965
     19      -0.001787  -6.281196  -2.979111  -3.783597  -0.000924  -3.290463
     20      -2.629836   0.001272   0.000609   0.000348  -1.327764   0.000288
     21       0.001045   0.877838   1.756204   0.653114   0.000144  -0.927094
     22       0.000605   2.119158  -1.684069   0.563414   0.000132   0.479878
     23      -0.001685  -6.247431  -2.779673  -5.875114  -0.001183  -4.596031
     24      -4.895518   0.001570   0.000703   0.000894  -3.597813   0.000648
     25       0.001237  -0.682929   2.094921   1.751435   0.000299  -3.004493
     26       0.000716   2.694338  -3.878554   1.526013   0.000278   1.173784
     27      -0.000700  -2.948148  -1.116158  -6.658818  -0.000866  -4.000514
     28      -3.367851   0.000546   0.000212   0.000993  -4.812533   0.000564
     29       0.000377  -2.008575   0.643054   2.227479   0.000255  -4.377525
     30       0.000226   0.971144  -3.127711   1.711139   0.000210   1.034015
     31       0.000874   0.174438  -0.000483   0.242213   0.000165   0.076828
     32       1.456417  -0.000253  -0.000385  -0.000105   0.197249   0.000060
     33       0.841285  -0.000451   0.000313  -0.000067   0.171604  -0.000045
     34      -0.000251   0.639286  -1.252232  -0.161208  -0.000031   0.092852
     35      -0.000369  -0.364226   0.845209  -0.133350  -0.000020   0.150449
     36      -0.000309   0.211043   4.140034  -2.206659  -0.000121   0.084648
     37      -0.000413  -0.368684   4.120812  -4.940704  -0.000248  -0.202058
     38       0.000718   3.299155  -2.091872  -2.093086   0.000280   1.287612
     39       0.000654   2.932338  -2.299082  -4.681706   0.000429   1.906824
     40       0.000027  -1.303316  -1.538630  -1.487918   0.000045  -1.441955
     41      -0.000042  -2.928669  -3.028817  -3.694144   0.000020  -3.115206
     42      -0.000039  -0.537804   0.045200  -0.702091  -0.000097  -1.335074
     43      -0.000155  -1.999928   0.133154  -2.139348  -0.000274  -3.786462
     44      -0.390371   0.000148  -0.000014   0.000063  -0.745870   0.000125
     45       0.000187   1.921722  -0.143676   0.777689   0.000113   0.533126
     46      -0.000030  -0.317019  -0.392652  -0.199359  -0.000027  -0.349779
     47      -0.000314  -3.547254   0.120295  -3.630502  -0.000418  -5.539162
     48      -1.476887   0.000348  -0.000040   0.000171  -2.223821   0.000286
     49       0.000557   4.612751  -0.188536   2.719380   0.000338   1.362694
     50      -0.000108  -0.869534  -1.570003  -0.580670  -0.000078  -0.834283
     51      -0.000304  -2.995436  -0.026059  -5.032940  -0.000407  -5.148121
     52      -2.071666   0.000229  -0.000020   0.000294  -3.603016   0.000287
     53       0.000393   1.872403  -0.008535   4.463188   0.000348   0.212050
     54      -0.000073  -0.546633  -2.194579  -0.678841  -0.000066  -0.691683
     55       0.000100   0.577915  -0.016072   0.192727   0.000051   0.197866
     56       0.409812  -0.000116   0.000016   0.000016   0.245051   0.000053
     57      -0.052099   0.000012   0.000025   0.000005  -0.056978   0.000018
     58      -0.000103  -0.867982   0.131982  -0.211767  -0.000028  -0.128231
     59       0.000039   0.332809   0.411461   0.069206   0.000017   0.014298
     60      -0.000062  -0.687127   0.364987  -1.049359  -0.000158  -1.773214
     61      -0.000221  -2.274935   1.038330  -2.769353  -0.000349  -3.947781
     62       0.000000  -0.014264  -0.001068  -0.231173   0.000001  -0.642722
     63      -0.000000  -0.071124  -0.004918  -0.582588  -0.000001  -1.544898
     64      -0.006566  -0.000002  -0.000000  -0.000009  -0.149079  -0.000022
     65       0.000000   0.088610   0.006348   0.269030   0.000002   0.557067
     66       0.000000   0.010033  -0.006078   0.033779   0.000001   0.086344
     67      -0.000006  -0.394683  -0.026371  -1.201481  -0.000017  -2.833796
     68      -0.091401  -0.000025  -0.000002  -0.000050  -0.633331  -0.000104
     69       0.000017   0.917554   0.072990   1.252090   0.000033   2.205437
     70       0.000002   0.095289  -0.091057   0.151132   0.000007   0.340787
     71      -0.000049  -1.478391  -0.143900  -2.330235  -0.000065  -4.191736
     72      -0.576019  -0.000077  -0.000015  -0.000098  -1.606591  -0.000156
     73       0.000120   3.020754   0.371082   3.173813   0.000111   3.745808
     74      -0.000000   0.242530  -0.589248   0.255529   0.000007   0.481821
     75       0.000001   0.096760   0.004982   0.119925  -0.000002   0.205950
     76       0.025180   0.000011   0.000000   0.000026   0.154004   0.000056
     77       0.002442   0.000003  -0.000000   0.000008   0.017854   0.000018
     78      -0.000001  -0.157748  -0.013522  -0.182682  -0.000005  -0.298932
     79      -0.000001  -0.044087   0.023902  -0.072831  -0.000004  -0.154287
                 12         13         14         15         16         17    
      0      -0.001059   0.009258  -0.000005  -0.000001  -0.005658  -0.004842
      1      -0.049162   0.293259  -0.000160  -0.000036  -0.183701  -0.158063
      2      -0.000010  -0.000108  -0.591349  -0.160164  -0.000025  -0.000058
      3      -0.038674   0.430638  -0.000194  -0.000058  -0.709240  -0.366203
      4      -1.595015   0.129082  -0.000058  -0.000144   0.017539  -0.627997
      5      -0.148945   0.330242  -0.000182  -0.000044  -0.217109  -0.187340
      6      -0.000033  -0.000070  -0.463666  -0.122051  -0.000031  -0.000064
      7      -0.135137   0.379175  -0.000180  -0.000064  -0.605616  -0.347877
      8      -4.217003   0.116187  -0.000064  -0.000119  -0.024585  -0.514801
      9      -0.210486   0.187389  -0.000104  -0.000026  -0.126889  -0.109174
     10      -0.000022  -0.000019  -0.135891  -0.035270  -0.000010  -0.000020
     11      -0.103066   0.115812  -0.000056  -0.000020  -0.182831  -0.106443
     12      -5.381767   0.035590  -0.000020  -0.000035  -0.009528  -0.153653
     13       0.035590  -7.928449   0.000008  -0.000002   0.156325   0.139039
     14      -0.000020   0.000008  -8.018161  -0.081960  -0.000133  -0.000060
     15      -0.000035  -0.000002  -0.081960  -7.815939  -0.000005  -0.000117
     16      -0.009528   0.156325  -0.000133  -0.000005  -8.304753  -0.036951
     17      -0.153653   0.139039  -0.000060  -0.000117  -0.036951  -8.318170
     18      -0.606666   0.698558  -0.000578  -0.000286  -0.732886  -0.962521
     19      -1.543159   1.590607  -0.001289  -0.000620  -1.708702  -2.134874
     20       0.000136  -0.001448  -1.931863  -0.935016   0.000853   0.001075
     21       0.255164  -1.480743   0.001555   0.001029   0.831691   2.579446
     22      -1.154557  -0.787548   0.001082  -0.000044   2.367035  -0.153194
     23      -1.949659   0.834045  -0.000642  -0.000290  -0.885568  -1.027599
     24       0.000268  -0.000832  -1.573076  -0.726716   0.000339   0.000383
     25       0.556948  -0.132854   0.000353   0.000352  -0.492830   0.523725
     26      -3.295055  -0.116865   0.000406  -0.000267   1.288523  -0.939543
     27      -1.383546   0.230590  -0.000149  -0.000053  -0.205808  -0.201831
     28       0.000194  -0.000138  -0.301260  -0.123372   0.000041   0.000033
     29       0.465549   0.015647   0.000018   0.000025  -0.176605  -0.019338
     30      -4.626512  -0.011519   0.000046  -0.000065   0.177110  -0.239519
     31      -0.020281  -1.199474   0.002033   0.000974   0.426202   0.464992
     32      -0.000031   0.001993   2.465341   1.603978  -0.000547  -0.001496
     33       0.000099   0.001033   1.682320  -0.013223  -0.001298   0.000002
     34      -0.202293   0.327199  -0.000476  -0.001200   1.426662  -2.487163
     35       0.151992   0.533091  -0.001500   0.000001  -2.527915  -0.008726
     36       1.625814   1.463353   0.000011   0.000376   2.479347  -0.255431
     37       2.671701   0.479213  -0.000077   0.000105   0.513350   0.020069
     38      -0.813831   1.388289  -0.000743   0.000467  -1.011040   2.148832
     39      -1.427217   0.429516  -0.000212   0.000097  -0.202794   0.442416
     40      -1.732326   0.113004  -0.000002   0.000002   0.025990  -0.190297
     41      -3.270782   0.436090  -0.000049  -0.000020  -0.004897  -0.703258
     42       0.112169   0.000145  -0.000000   0.000000  -0.000248   0.000042
     43       0.269936   0.056084  -0.000017   0.000000  -0.094859   0.008665
     44      -0.000009  -0.000012  -0.033666   0.002085   0.000015  -0.000003
     45      -0.093686  -0.121050   0.000039  -0.000000   0.204076  -0.020023
     46      -0.756142   0.015303  -0.000006  -0.000003  -0.029292  -0.034890
     47       0.291727   0.285254  -0.000101  -0.000008  -0.462288  -0.002255
     48      -0.000025  -0.000089  -0.402438   0.017821   0.000082  -0.000013
     49      -0.162370  -0.596242   0.000248   0.000018   0.944484  -0.003301
     50      -2.318880   0.090566  -0.000046  -0.000045  -0.178582  -0.434713
     51       0.136714   0.190510  -0.000089  -0.000019  -0.239859  -0.070473
     52      -0.000019  -0.000048  -0.273949  -0.000022   0.000021  -0.000003
     53      -0.115391  -0.154678   0.000111   0.000023   0.115001   0.089338
     54      -3.731171   0.042665  -0.000027  -0.000038  -0.064909  -0.305557
     55       0.020318  -0.061313   0.000023  -0.000001   0.098579  -0.008983
     56       0.000005   0.000019   0.048498  -0.003503  -0.000024   0.000005
     57       0.000019  -0.000002  -0.005249  -0.002869   0.000003   0.000003
     58       0.062474   0.096254  -0.000031   0.000002  -0.165663   0.027621
     59       0.253643  -0.024042   0.000010   0.000005   0.046942   0.048164
     60       0.943416   0.008045  -0.000002   0.000001  -0.007479   0.011648
     61       1.816224   0.185472  -0.000058   0.000019  -0.189884   0.213346
     62      -0.048117   0.000000   0.000000   0.000000   0.000000   0.000000
     63      -0.111768   0.000001  -0.000000  -0.000000  -0.000001  -0.000000
     64      -0.000001   0.000000  -0.000000  -0.000000  -0.000000  -0.000000
     65       0.048264  -0.000003   0.000000   0.000000   0.000005   0.000001
     66      -0.144645  -0.000000   0.000000  -0.000000   0.000000  -0.000000
     67      -0.189329   0.004006  -0.000000  -0.000000  -0.006617  -0.001570
     68      -0.000003   0.000000  -0.003352  -0.000315  -0.000000  -0.000000
     69       0.180566  -0.018017   0.000002   0.000001   0.029632   0.007463
     70      -0.633050  -0.000944  -0.000000  -0.000000   0.002299  -0.003195
     71      -0.301481   0.086563  -0.000018  -0.000006  -0.134134  -0.041812
     72      -0.000013   0.000002  -0.107106  -0.011036  -0.000006  -0.000005
     73       0.432475  -0.226747   0.000051   0.000017   0.341674   0.122447
     74      -1.638182  -0.009727   0.000000  -0.000003   0.036915  -0.105240
     75       0.004327  -0.000036   0.000000   0.000000   0.000061   0.000010
     76       0.000001  -0.000000   0.000013   0.000001   0.000000   0.000000
     77      -0.000005  -0.000000   0.000001  -0.000000   0.000000  -0.000000
     78      -0.042783   0.000061  -0.000000  -0.000000  -0.000105  -0.000019
     79       0.150973   0.000009  -0.000000   0.000000  -0.000018   0.000011
                 18         19         20         21         22         23    
      0      -0.000260  -0.507051   0.000292   0.975951   0.485554  -1.562002
      1      -0.527731  -2.732107   0.000998   3.239883   1.663959  -4.320882
      2      -0.000303  -0.000971  -1.388966   0.001298   0.000666  -0.000825
      3      -1.018748  -3.347671   0.001370   3.041842   2.286593  -2.926130
      4      -0.504729  -1.613713   0.000664   2.160259  -0.296675  -1.356183
      5      -1.638836  -4.551206   0.000929   2.700014   1.538227  -6.378592
      6      -0.000867  -0.001787  -2.629836   0.001045   0.000605  -0.001685
      7      -2.914276  -6.281196   0.001272   0.877838   2.119158  -6.247431
      8      -1.443511  -2.979111   0.000609   1.756204  -1.684069  -2.779673
      9      -1.314981  -3.783597   0.000348   0.653114   0.563414  -5.875114
     10      -0.000364  -0.000924  -1.327764   0.000144   0.000132  -0.001183
     11      -1.224965  -3.290463   0.000288  -0.927094   0.479878  -4.596031
     12      -0.606666  -1.543159   0.000136   0.255164  -1.154557  -1.949659
     13       0.698558   1.590607  -0.001448  -1.480743  -0.787548   0.834045
     14      -0.000578  -0.001289  -1.931863   0.001555   0.001082  -0.000642
     15      -0.000286  -0.000620  -0.935016   0.001029  -0.000044  -0.000290
     16      -0.732886  -1.708702   0.000853   0.831691   2.367035  -0.885568
     17      -0.962521  -2.134874   0.001075   2.579446  -0.153194  -1.027599
     18     -25.510781  -5.317750   0.000050  -0.013972   0.072394  -4.556980
     19      -5.317750 -12.352444   0.000362  -0.101935   0.525990  -9.960647
     20       0.000050   0.000362 -11.330532  -0.000048  -0.000025   0.000356
     21      -0.013972  -0.101935  -0.000048 -11.938253  -0.023949  -0.111154
     22       0.072394   0.525990  -0.000025  -0.023949 -11.612860   0.535008
     23      -4.556980  -9.960647   0.000356  -0.111154   0.535008 -11.057369
     24       0.000008   0.000257  -5.990286  -0.000047  -0.000033   0.000507
     25      -0.002347  -0.081665  -0.000047  -6.618577  -0.014511  -0.286979
     26       0.012162   0.388120  -0.000033  -0.014511  -6.262601   0.846731
     27      -1.727557  -4.861663   0.000197  -0.068102   0.301967  -7.340335
     28       0.000002   0.000075  -1.713561  -0.000015  -0.000012   0.000231
     29      -0.000473  -0.026786  -0.000015  -1.924113  -0.002432  -0.197101
     30       0.002451   0.116605  -0.000012  -0.002432  -1.801451   0.405369
     31       0.011626   0.371794   0.000227   0.033532  -0.287652   0.427606
     32      -0.000002  -0.000070  -0.099759   0.000380   0.000035  -0.000080
     33      -0.000001  -0.000035   0.384156   0.000035   0.000341  -0.000047
     34      -0.007116  -0.232443   0.000019  -0.047692  -0.224037  -0.278389
     35      -0.001179  -0.036300   0.000035   0.658347  -0.110146  -0.035836
     36      -0.001452  -0.124336   0.000037   0.159350   0.194575  -0.797393
     37      -0.379026  -1.459127   0.000240   0.884433   1.144738  -2.843408
     38      -0.001328  -0.115063   0.000062   0.232960   0.013589  -0.744419
     39      -0.369270  -1.386122   0.000390   1.356863   0.118708  -2.667017
     40      -0.826311  -3.096481   0.001549  -0.449145  -3.785167  -3.708411
     41      -2.291901  -5.637973   0.001257  -0.390583  -2.529516  -7.010935
     42      -0.000030  -0.268321   0.000077  -0.534654   0.343308  -1.320587
     43      -0.264489  -1.969909   0.000364  -2.414120   1.552430  -3.935180
     44      -0.000075  -0.000330  -0.954619  -0.000446   0.000288  -0.000313
     45       0.526492   2.396996  -0.000485   2.245682  -2.084156   2.417318
     46      -0.338343  -1.550221   0.000315  -2.095723   0.384071  -1.690761
     47      -1.297440  -3.866668   0.000439  -2.461045   1.669601  -6.013616
     48      -0.000343  -0.000728  -2.229136  -0.000477   0.000318  -0.000682
     49       2.400728   5.488747  -0.000641   1.092670  -2.383473   5.610697
     50      -1.542270  -3.473908   0.000400  -2.218585  -0.770474  -3.636033
     51      -1.235512  -3.594534   0.000231  -0.747769   0.640696  -5.755436
     52      -0.000171  -0.000415  -1.261957  -0.000095   0.000070  -0.000496
     53       1.197725   3.214668  -0.000216  -0.751374  -0.567655   4.351185
     54      -0.769315  -2.008276   0.000125  -0.411462  -0.957719  -2.671112
     55       0.326055   1.279936  -0.000507   1.306452  -0.844338   0.780530
     56       0.000114   0.000427   1.264753   0.000511  -0.000444   0.000238
     57      -0.000073  -0.000275  -0.820090  -0.000444   0.000110  -0.000135
     58      -0.234537  -0.907374   0.000216  -0.157270   1.765341  -0.512748
     59       0.513656   1.997413  -0.000476   2.368895  -0.789830   1.047643
     60      -0.000737  -0.088231   0.000014  -0.098259   0.157448  -0.720082
     61      -0.311803  -1.267013   0.000123  -0.681887   1.115959  -2.700762
     62       0.000000  -0.000442   0.000000  -0.001738   0.000242  -0.160468
     63      -0.000003  -0.017547   0.000007  -0.046754   0.007469  -0.515810
     64      -0.000000  -0.000005  -0.006370  -0.000014   0.000002  -0.000073
     65       0.000011   0.034849  -0.000014   0.086820  -0.015200   0.479072
     66      -0.000001  -0.003514   0.000001  -0.009548  -0.005366  -0.038584
     67      -0.038670  -0.362463   0.000087  -0.549434   0.102072  -1.464674
     68      -0.000025  -0.000162  -0.210645  -0.000249   0.000046  -0.000381
     69       0.167139   1.077255  -0.000262   1.438923  -0.300416   2.549349
     70      -0.023082  -0.122741   0.000029  -0.181650  -0.190869  -0.182435
     71      -0.529929  -1.713967   0.000215  -1.147296   0.258345  -3.205663
     72      -0.000204  -0.000554  -0.777479  -0.000376   0.000083  -0.000786
     73       1.339909   3.763244  -0.000478   1.683413  -0.553499   5.463214
     74      -0.185092  -0.468755   0.000058  -0.298210  -0.745402  -0.539528
     75       0.000283   0.079438  -0.000038   0.165776  -0.030730   0.344854
     76       0.000000   0.000041   0.048465   0.000093  -0.000018   0.000176
     77      -0.000000  -0.000004  -0.005469  -0.000009  -0.000007  -0.000005
     78      -0.000472  -0.132339   0.000049  -0.274479   0.061395  -0.563305
     79       0.000133   0.025084  -0.000010   0.056176   0.043337   0.037478
                 24         25         26         27         28         29    
      0       0.000827   2.769884   1.377867  -1.249863   0.000347   1.161095
      1       0.001733   5.679694   2.896534  -3.452701   0.000865   2.849399
      2      -2.470727   0.001059   0.000545  -0.000258  -1.206523   0.000188
      3       0.001148   1.241541   1.935087  -0.987840   0.000223  -0.501874
      4       0.000536   1.754508  -1.623122  -0.408669   0.000095   0.307929
      5       0.001776   5.345807   2.980999  -5.463577   0.001166   3.599154
      6      -4.895518   0.001237   0.000716  -0.000700  -3.367851   0.000377
      7       0.001570  -0.682929   2.694338  -2.948148   0.000546  -2.008575
      8       0.000703   2.094921  -3.878554  -1.116158   0.000212   0.643054
      9       0.000894   1.751435   1.526013  -6.658818   0.000993   2.227479
     10      -3.597813   0.000299   0.000278  -0.000866  -4.812533   0.000255
     11       0.000648  -3.004493   1.173784  -4.000514   0.000564  -4.377525
     12       0.000268   0.556948  -3.295055  -1.383546   0.000194   0.465549
     13      -0.000832  -0.132854  -0.116865   0.230590  -0.000138   0.015647
     14      -1.573076   0.000353   0.000406  -0.000149  -0.301260   0.000018
     15      -0.726716   0.000352  -0.000267  -0.000053  -0.123372   0.000025
     16       0.000339  -0.492830   1.288523  -0.205808   0.000041  -0.176605
     17       0.000383   0.523725  -0.939543  -0.201831   0.000033  -0.019338
     18       0.000008  -0.002347   0.012162  -1.727557   0.000002  -0.000473
     19       0.000257  -0.081665   0.388120  -4.861663   0.000075  -0.026786
     20      -5.990286  -0.000047  -0.000033   0.000197  -1.713561  -0.000015
     21      -0.000047  -6.618577  -0.014511  -0.068102  -0.000015  -1.924113
     22      -0.000033  -0.014511  -6.262601   0.301967  -0.000012  -0.002432
     23       0.000507  -0.286979   0.846731  -7.340335   0.000231  -0.197101
     24      -8.500737  -0.000076  -0.000111   0.000454  -4.502632  -0.000019
     25      -0.000076 -10.181640   0.048271  -0.386837  -0.000019  -5.498066
     26      -0.000111   0.048271  -9.119737   0.795590  -0.000065   0.057320
     27       0.000454  -0.386837   0.795590  -7.907924   0.000368  -0.541383
     28      -4.502632  -0.000019  -0.000065   0.000368  -5.670929   0.000028
     29      -0.000019  -5.498066   0.057320  -0.541383   0.000028  -6.834840
     30      -0.000065   0.057320  -4.829040   0.667652  -0.000067   0.104692
     31       0.000148   0.028527  -0.259392   0.245996   0.000040   0.009752
     32      -0.089531   0.000340   0.000038  -0.000045  -0.027743   0.000104
     33       0.299121   0.000038   0.000283  -0.000029   0.087305   0.000012
     34       0.000029  -0.036265  -0.126867  -0.164029   0.000010  -0.012105
     35       0.000038   0.621535  -0.102676  -0.017796   0.000012   0.192851
     36       0.000282   1.226630   1.533799  -1.409306   0.000295   1.296382
     37       0.000674   2.564916   3.231526  -3.561697   0.000635   2.530399
     38       0.000489   1.836314   0.082318  -1.325837   0.000526   1.980913
     39       0.001080   3.854880   0.345954  -3.327098   0.001058   3.854651
     40       0.001807  -0.532805  -4.442458  -2.379871   0.000703  -0.208055
     41       0.002080  -0.745933  -4.286059  -5.415481   0.001285  -0.490508
     42       0.000352  -2.445878   1.569623  -1.258965   0.000176  -1.221639
     43       0.000839  -5.653775   3.546977  -3.705404   0.000496  -3.358492
     44      -2.267820  -0.000426   0.000284  -0.000061  -1.293120  -0.000031
     45      -0.000491   0.988147  -2.190442   0.653815  -0.000063  -0.894105
     46       0.000364  -2.450105  -0.781187  -0.660557   0.000090  -0.602445
     47       0.000956  -5.781049   3.695233  -5.844429   0.000715  -4.514190
     48      -4.648605  -0.000571   0.000382  -0.000202  -3.551192  -0.000089
     49      -0.000811  -0.486194  -3.161310   2.301254  -0.000215  -2.652087
     50       0.000543  -3.209784  -2.736659  -1.778761   0.000213  -1.297723
     51       0.000607  -2.450094   1.830224  -6.902282   0.000679  -3.397047
     52      -3.520526  -0.000208   0.000134  -0.000288  -4.901571  -0.000119
     53      -0.000457  -2.535678  -1.298227   3.327496  -0.000306  -4.294975
     54       0.000259  -1.049981  -2.880615  -2.109644   0.000200  -0.991388
     55      -0.000366   0.352939  -0.169254   0.272735  -0.000063   0.132216
     56       1.319253   0.000171  -0.000211   0.000083   0.214309   0.000065
     57      -0.922695  -0.000175  -0.000053  -0.000003  -0.200542   0.000013
     58       0.000108   0.631716   1.376433  -0.191896   0.000030   0.024914
     59      -0.000205   0.453961   0.393326   0.083191   0.000005  -0.234082
     60       0.000138  -0.979208   1.584654  -1.455084   0.000166  -1.177868
     61       0.000382  -2.320272   3.499910  -3.732784   0.000395  -2.540327
     62       0.000087  -0.571826   0.079576  -0.682112   0.000192  -1.258390
     63       0.000241  -1.577962   0.235726  -1.629190   0.000436  -2.855098
     64      -0.228638  -0.000222   0.000035  -0.000081  -0.419017  -0.000139
     65      -0.000223   1.234982  -0.227970   0.543898  -0.000142   0.513528
     66       0.000019  -0.126156  -0.216621  -0.008733   0.000004  -0.024119
     67       0.000499  -3.230271   0.584254  -2.973602   0.000705  -4.584691
     68      -1.117554  -0.000804   0.000155  -0.000325  -1.566061  -0.000468
     69      -0.000833   4.237368  -1.016098   2.227544  -0.000495   1.622744
     70       0.000063  -0.390912  -1.123869  -0.023938   0.000014  -0.077294
     71       0.000653  -3.837611   0.842646  -4.609989   0.000852  -5.279454
     72      -2.313221  -0.000895   0.000196  -0.000618  -3.187971  -0.000657
     73      -0.001068   3.620569  -1.334790   4.475844  -0.000777   1.311413
     74       0.000098  -0.536299  -2.330607  -0.251038   0.000048  -0.266487
     75      -0.000232   0.681792  -0.153085   0.202571  -0.000099   0.133435
     76       0.487696   0.000419  -0.000091   0.000098   0.305313   0.000105
     77      -0.042938  -0.000019  -0.000077   0.000014  -0.008602   0.000017
     78       0.000241  -1.093735   0.326764  -0.302466   0.000071  -0.163592
     79      -0.000023   0.098311   0.505433  -0.079183   0.000015  -0.107763
                 30         31         32         33         34         35    
      0       0.577564   0.671341  -0.000557  -0.000277  -0.701268  -0.927411
      1       1.447857   1.535615  -0.001286  -0.000662  -1.539154  -2.137919
      2       0.000101   0.001420   1.878556   0.963843  -0.000760  -0.001048
      3       0.385243   1.476691  -0.001565  -0.001104  -0.689119  -2.603645
      4      -1.081402   0.693156  -0.001050   0.000048  -2.237763   0.147581
      5       1.966125   0.784690  -0.000614  -0.000341  -0.687327  -0.992027
      6       0.000226   0.000874   1.456417   0.841285  -0.000251  -0.000369
      7       0.971144   0.174438  -0.000253  -0.000451   0.639286  -0.364226
      8      -3.127711  -0.000483  -0.000385   0.000313  -1.252232   0.845209
      9       1.711139   0.242213  -0.000105  -0.000067  -0.161208  -0.133350
     10       0.000210   0.000165   0.197249   0.171604  -0.000031  -0.000020
     11       1.034015   0.076828   0.000060  -0.000045   0.092852   0.150449
     12      -4.626512  -0.020281  -0.000031   0.000099  -0.202293   0.151992
     13      -0.011519  -1.199474   0.001993   0.001033   0.327199   0.533091
     14       0.000046   0.002033   2.465341   1.682320  -0.000476  -0.001500
     15      -0.000065   0.000974   1.603978  -0.013223  -0.001200   0.000001
     16       0.177110   0.426202  -0.000547  -0.001298   1.426662  -2.527915
     17      -0.239519   0.464992  -0.001496   0.000002  -2.487163  -0.008726
     18       0.002451   0.011626  -0.000002  -0.000001  -0.007116  -0.001179
     19       0.116605   0.371794  -0.000070  -0.000035  -0.232443  -0.036300
     20      -0.000012   0.000227  -0.099759   0.384156   0.000019   0.000035
     21      -0.002432   0.033532   0.000380   0.000035  -0.047692   0.658347
     22      -1.801451  -0.287652   0.000035   0.000341  -0.224037  -0.110146
     23       0.405369   0.427606  -0.000080  -0.000047  -0.278389  -0.035836
     24      -0.000065   0.000148  -0.089531   0.299121   0.000029   0.000038
     25       0.057320   0.028527   0.000340   0.000038  -0.036265   0.621535
     26      -4.829040  -0.259392   0.000038   0.000283  -0.126867  -0.102676
     27       0.667652   0.245996  -0.000045  -0.000029  -0.164029  -0.017796
     28      -0.000067   0.000040  -0.027743   0.087305   0.000010   0.000012
     29       0.104692   0.009752   0.000104   0.000012  -0.012105   0.192851
     30      -5.978099  -0.080155   0.000012   0.000083  -0.033286  -0.032530
     31      -0.080155  -9.131085   0.000008  -0.000012   0.196742   0.039440
     32       0.000012   0.000008  -9.262757  -0.010134  -0.000072  -0.000098
     33       0.000083  -0.000012  -0.010134  -9.004226  -0.000051  -0.000041
     34      -0.033286   0.196742  -0.000072  -0.000051  -9.606689  -0.023141
     35      -0.032530   0.039440  -0.000098  -0.000041  -0.023141  -9.644003
     36       1.651637   0.120515  -0.000040  -0.000047   0.038952  -0.200368
     37       3.251620   0.453282  -0.000168  -0.000189   0.105361  -0.676421
     38       0.068212   0.111646  -0.000102  -0.000006  -0.188248  -0.023378
     39       0.257803   0.417438  -0.000385  -0.000044  -0.652907  -0.159566
     40      -1.734339   1.593665   0.000258   0.002192   2.625118  -0.636116
     41      -2.757559   0.530324   0.000060   0.000566   0.455361  -0.192531
     42       0.783752   0.330623   0.000117  -0.000075  -0.238171   0.520676
     43       2.071485   1.290333   0.000472  -0.000305  -0.924130   2.011324
     44       0.000035   0.000507  -1.270195   0.819935  -0.000205   0.000449
     45      -0.367573  -1.310348  -0.000552   0.000486   0.169586  -2.378986
     46      -0.975792   0.854655   0.000486  -0.000119  -1.781458   0.798947
     47       2.753431   0.781686   0.000268  -0.000196  -0.519544   1.086866
     48       0.000090   0.000420  -1.334675   0.910571  -0.000100   0.000218
     49      -1.006062  -0.324649  -0.000109   0.000296  -0.658084  -0.535465
     50      -2.907825   0.175149   0.000250   0.000077  -1.371087  -0.373639
     51       2.218000   0.248019   0.000018  -0.000050  -0.152736   0.136148
     52       0.000085   0.000096  -0.236028   0.196790  -0.000014   0.000022
     53      -1.022534  -0.078712   0.000088   0.000052  -0.108522   0.164130
     54      -4.399104   0.007707   0.000014   0.000059  -0.253027  -0.176519
     55      -0.017003  -1.077616  -0.000746   0.000482   0.402692  -0.882039
     56      -0.000036  -0.000742   1.670560  -1.407425   0.000082  -0.000658
     57      -0.000021   0.000480  -1.412104   0.399385  -0.000450   0.000246
     58       0.274267   0.393957   0.000083  -0.000482   1.809088   1.790231
     59       0.182693  -0.884244  -0.000704   0.000264   1.796083  -1.364188
     60       1.940755   0.084977   0.000012  -0.000019   0.063674   0.129721
     61       3.844331   0.413470   0.000061  -0.000107   0.239473   0.574380
     62       0.175089   0.000107   0.000000  -0.000000  -0.000179   0.000051
     63       0.415994   0.015520   0.000008  -0.000001  -0.025317   0.008407
     64       0.000022   0.000007  -0.007066   0.001082  -0.000009   0.000003
     65      -0.148120  -0.033670  -0.000018   0.000003   0.054408  -0.019560
     66      -0.422078   0.003427   0.000002   0.000001  -0.008039  -0.005439
     67       0.751652   0.228192   0.000118  -0.000022  -0.357134   0.143261
     68       0.000091   0.000164  -0.284142   0.048351  -0.000177   0.000070
     69      -0.607095  -0.575698  -0.000339   0.000070   0.879171  -0.406530
     70      -1.615059   0.052969   0.000044   0.000040  -0.184428  -0.250106
     71       0.999961   0.283796   0.000131  -0.000033  -0.375137   0.191719
     72       0.000136   0.000192  -0.468364   0.100343  -0.000126   0.000064
     73      -0.954315  -0.348679  -0.000191   0.000073   0.350408  -0.283563
     74      -3.258548   0.007623   0.000035   0.000091  -0.186719  -0.446339
     75      -0.063479  -0.087925  -0.000063   0.000011   0.132522  -0.049689
     76      -0.000033  -0.000063   0.072013  -0.012095   0.000080  -0.000030
     77      -0.000052   0.000006  -0.009226  -0.003653  -0.000012  -0.000009
     78       0.106294   0.138445   0.000082  -0.000017  -0.221348   0.100288
     79       0.348041  -0.026069  -0.000019  -0.000009   0.069262   0.058413
                 36         37         38         39         40         41    
      0      -0.783611  -2.175208  -0.790183  -2.180132  -0.001232  -0.347923
      1      -2.850043  -5.111251  -2.772638  -5.041133  -0.116310  -1.334350
      2      -0.000265  -0.000254   0.000619   0.000384   0.000001  -0.000013
      3       0.175673  -0.203067   2.850956   1.753025  -0.156260  -0.941961
      4       3.508604   2.418708  -1.817847  -1.401910  -0.180232  -1.009215
      5      -3.425116  -6.351249  -3.278607  -6.147901  -0.804617  -2.744346
      6      -0.000309  -0.000413   0.000718   0.000654   0.000027  -0.000042
      7       0.211043  -0.368684   3.299155   2.932338  -1.303316  -2.928669
      8       4.140034   4.120812  -2.091872  -2.299082  -1.538630  -3.028817
      9      -2.206659  -4.940704  -2.093086  -4.681706  -1.487918  -3.694144
     10      -0.000121  -0.000248   0.000280   0.000429   0.000045   0.000020
     11       0.084648  -0.202058   1.287612   1.906824  -1.441955  -3.115206
     12       1.625814   2.671701  -0.813831  -1.427217  -1.732326  -3.270782
     13       1.463353   0.479213   1.388289   0.429516   0.113004   0.436090
     14       0.000011  -0.000077  -0.000743  -0.000212  -0.000002  -0.000049
     15       0.000376   0.000105   0.000467   0.000097   0.000002  -0.000020
     16       2.479347   0.513350  -1.011040  -0.202794   0.025990  -0.004897
     17      -0.255431   0.020069   2.148832   0.442416  -0.190297  -0.703258
     18      -0.001452  -0.379026  -0.001328  -0.369270  -0.826311  -2.291901
     19      -0.124336  -1.459127  -0.115063  -1.386122  -3.096481  -5.637973
     20       0.000037   0.000240   0.000062   0.000390   0.001549   0.001257
     21       0.159350   0.884433   0.232960   1.356863  -0.449145  -0.390583
     22       0.194575   1.144738   0.013589   0.118708  -3.785167  -2.529516
     23      -0.797393  -2.843408  -0.744419  -2.667017  -3.708411  -7.010935
     24       0.000282   0.000674   0.000489   0.001080   0.001807   0.002080
     25       1.226630   2.564916   1.836314   3.854880  -0.532805  -0.745933
     26       1.533799   3.231526   0.082318   0.345954  -4.442458  -4.286059
     27      -1.409306  -3.561697  -1.325837  -3.327098  -2.379871  -5.415481
     28       0.000295   0.000635   0.000526   0.001058   0.000703   0.001285
     29       1.296382   2.530399   1.980913   3.854651  -0.208055  -0.490508
     30       1.651637   3.251620   0.068212   0.257803  -1.734339  -2.757559
     31       0.120515   0.453282   0.111646   0.417438   1.593665   0.530324
     32      -0.000040  -0.000168  -0.000102  -0.000385   0.000258   0.000060
     33      -0.000047  -0.000189  -0.000006  -0.000044   0.002192   0.000566
     34       0.038952   0.105361  -0.188248  -0.652907   2.625118   0.455361
     35      -0.200368  -0.676421  -0.023378  -0.159566  -0.636116  -0.192531
     36      -7.658624  -5.339898  -0.166714  -1.239028  -0.000247  -0.090443
     37      -5.339898  -7.507634  -1.199943  -3.166167  -0.094475  -0.719733
     38      -0.166714  -1.199943  -7.202127  -5.039070  -0.007249  -0.335649
     39      -1.239028  -3.166167  -5.039070  -7.048050  -0.361517  -1.484302
     40      -0.000247  -0.094475  -0.007249  -0.361517  -8.293790  -5.757906
     41      -0.090443  -0.719733  -0.335649  -1.484302  -5.757906  -8.141879
     42      -0.000009  -0.087709  -0.000000  -0.006348  -0.000753  -0.318290
     43      -0.007377  -0.440656  -0.000074  -0.060156  -0.088756  -1.291771
     44       0.000001   0.000017   0.000000   0.000008   0.000018   0.000132
     45       0.017511   0.498404   0.000236   0.089221   0.101396   0.686450
     46       0.005699   0.139791  -0.000055  -0.024274  -0.156456  -1.121599
     47      -0.214003  -1.243678  -0.026731  -0.352484  -0.715553  -2.698399
     48       0.000027   0.000082   0.000011   0.000079   0.000184   0.000378
     49       0.652166   2.278472   0.106312   0.866114   0.998184   2.322018
     50       0.205824   0.591479  -0.023058  -0.212021  -1.554192  -3.431832
     51      -0.946079  -2.554245  -0.472620  -1.471419  -1.436890  -3.677439
     52       0.000072   0.000154   0.000124   0.000291   0.000233   0.000441
     53       1.738573   3.813669   1.137370   2.859921   1.194285   2.537957
     54       0.552887   1.031617  -0.253368  -0.643122  -1.892934  -3.731403
     55       0.006554   0.173206   0.000041   0.034909   0.085540   0.417779
     56      -0.000001  -0.000015  -0.000000  -0.000009  -0.000014  -0.000043
     57      -0.000000  -0.000007   0.000000   0.000002   0.000024   0.000107
     58      -0.009086  -0.237482  -0.000063  -0.050321   0.059653   0.225884
     59      -0.006682  -0.135407   0.000033   0.030538   0.132743   0.569287
     60      -0.012383  -0.439427  -0.000002  -0.012131  -0.000182  -0.084717
     61      -0.418695  -1.640276  -0.013633  -0.203431  -0.084283  -0.704175
     62       0.000000  -0.000937   0.000000  -0.000054  -0.000004  -0.084473
     63      -0.000000  -0.006112   0.000000  -0.000507  -0.000931  -0.282701
     64      -0.000000  -0.000000   0.000000   0.000000   0.000000   0.000002
     65       0.000000   0.008118   0.000000   0.000798   0.001895   0.237971
     66       0.000000   0.002998   0.000000  -0.000019  -0.001139  -0.123911
     67      -0.000381  -0.056488  -0.000016  -0.009377  -0.074619  -0.860674
     68      -0.000000  -0.000006   0.000000   0.000000   0.000004   0.000002
     69       0.001855   0.145806   0.000095   0.030299   0.228075   1.392846
     70       0.000660   0.050420  -0.000006  -0.001513  -0.133836  -0.692939
     71      -0.080705  -0.470227  -0.022495  -0.185017  -0.691886  -2.177505
     72      -0.000006  -0.000037   0.000004   0.000013   0.000026   0.000006
     73       0.281176   1.195152   0.094970   0.575308   1.500808   3.523118
     74       0.098309   0.383833  -0.005199  -0.030719  -0.878925  -1.791312
     75       0.000001   0.011731   0.000000   0.001326   0.007766   0.192385
     76       0.000000   0.000002  -0.000000  -0.000000  -0.000000   0.000004
     77       0.000000   0.000001   0.000000   0.000000   0.000000   0.000005
     78      -0.000001  -0.015333  -0.000000  -0.002229  -0.006322  -0.192616
     79      -0.000001  -0.013132   0.000000   0.000033   0.011776   0.231516
                 42         43         44         45         46         47    
      0       0.000000  -0.000436   0.000000   0.001649  -0.000142  -0.139523
      1      -0.000452  -0.059902   0.000008   0.128971  -0.015503  -0.682058
      2      -0.000000  -0.000011  -0.023053   0.000024  -0.000004  -0.000079
      3      -0.001717  -0.129807   0.000017   0.259899  -0.034090  -0.821851
      4       0.000144   0.006449  -0.000002  -0.013844  -0.023797   0.020409
      5      -0.148328  -0.710210   0.000049   0.818848  -0.115479  -1.877353
      6      -0.000039  -0.000155  -0.390371   0.000187  -0.000030  -0.000314
      7      -0.537804  -1.999928   0.000148   1.921722  -0.317019  -3.547254
      8       0.045200   0.133154  -0.000014  -0.143676  -0.392652   0.120295
      9      -0.702091  -2.139348   0.000063   0.777689  -0.199359  -3.630502
     10      -0.000097  -0.000274  -0.745870   0.000113  -0.000027  -0.000418
     11      -1.335074  -3.786462   0.000125   0.533126  -0.349779  -5.539162
     12       0.112169   0.269936  -0.000009  -0.093686  -0.756142   0.291727
     13       0.000145   0.056084  -0.000012  -0.121050   0.015303   0.285254
     14      -0.000000  -0.000017  -0.033666   0.000039  -0.000006  -0.000101
     15       0.000000   0.000000   0.002085  -0.000000  -0.000003  -0.000008
     16      -0.000248  -0.094859   0.000015   0.204076  -0.029292  -0.462288
     17       0.000042   0.008665  -0.000003  -0.020023  -0.034890  -0.002255
     18      -0.000030  -0.264489  -0.000075   0.526492  -0.338343  -1.297440
     19      -0.268321  -1.969909  -0.000330   2.396996  -1.550221  -3.866668
     20       0.000077   0.000364  -0.954619  -0.000485   0.000315   0.000439
     21      -0.534654  -2.414120  -0.000446   2.245682  -2.095723  -2.461045
     22       0.343308   1.552430   0.000288  -2.084156   0.384071   1.669601
     23      -1.320587  -3.935180  -0.000313   2.417318  -1.690761  -6.013616
     24       0.000352   0.000839  -2.267820  -0.000491   0.000364   0.000956
     25      -2.445878  -5.653775  -0.000426   0.988147  -2.450105  -5.781049
     26       1.569623   3.546977   0.000284  -2.190442  -0.781187   3.695233
     27      -1.258965  -3.705404  -0.000061   0.653815  -0.660557  -5.844429
     28       0.000176   0.000496  -1.293120  -0.000063   0.000090   0.000715
     29      -1.221639  -3.358492  -0.000031  -0.894105  -0.602445  -4.514190
     30       0.783752   2.071485   0.000035  -0.367573  -0.975792   2.753431
     31       0.330623   1.290333   0.000507  -1.310348   0.854655   0.781686
     32       0.000117   0.000472  -1.270195  -0.000552   0.000486   0.000268
     33      -0.000075  -0.000305   0.819935   0.000486  -0.000119  -0.000196
     34      -0.238171  -0.924130  -0.000205   0.169586  -1.781458  -0.519544
     35       0.520676   2.011324   0.000449  -2.378986   0.798947   1.086866
     36      -0.000009  -0.007377   0.000001   0.017511   0.005699  -0.214003
     37      -0.087709  -0.440656   0.000017   0.498404   0.139791  -1.243678
     38      -0.000000  -0.000074   0.000000   0.000236  -0.000055  -0.026731
     39      -0.006348  -0.060156   0.000008   0.089221  -0.024274  -0.352484
     40      -0.000753  -0.088756   0.000018   0.101396  -0.156456  -0.715553
     41      -0.318290  -1.291771   0.000132   0.686450  -1.121599  -2.698399
     42     -25.991243  -5.422999   0.000015  -0.034754  -0.081983  -4.645510
     43      -5.422999 -12.830324   0.000110  -0.243415  -0.591703 -10.337099
     44       0.000015   0.000110 -11.730333   0.000112   0.000024   0.000105
     45      -0.034754  -0.243415   0.000112 -12.554593  -0.112683  -0.208586
     46      -0.081983  -0.591703   0.000024  -0.112683 -12.021666  -0.588101
     47      -4.645510 -10.337099   0.000105  -0.208586  -0.588101 -11.420615
[...]
  4H   2s        -0.219638  0.000087  0.215101  0.000119  0.327619 -0.178572
  5C   1s        -0.014108 -0.000055  0.093016 -0.000001  0.036931  0.026281
  5C   2s        -0.103937 -0.000324  0.439401 -0.000020  0.291187 -0.284501
  5C   1pz        0.000100  0.070824 -0.000044 -0.251816  0.000008 -0.000009
  5C   1px       -0.074689 -0.000156  0.309207 -0.000057  0.098818  0.131891
  5C   1py       -0.004219  0.000105 -0.163638 -0.000012  0.054557 -0.211936
  5C   3s         0.692808  0.001573 -2.895308 -0.000090 -1.133738 -1.453958
  5C   2pz        0.000265  0.108335 -0.000050 -0.234823 -0.000036 -0.000175
  5C   2px       -1.151431  0.001544  0.137777  0.000286  0.361249  0.508086
  5C   2py        0.069801  0.000777 -1.262656  0.000178  0.065078 -0.585946
  5C   4s        -2.338088  0.002011  2.560025 -0.000164  0.083389  0.727038
  5C   3pz       -0.000056 -0.039201  0.000079  0.121387 -0.000122  0.000020
  5C   3px        0.539190 -0.000485 -0.508704  0.000072  0.081694 -0.108694
  5C   3py       -0.346679  0.000215  0.483054 -0.000027  0.097025  0.123955
  5C   1dz2      -0.302340  0.000002  0.648777  0.000270  0.220564  0.239802
  5C   1dxz      -0.000267 -0.123179 -0.000022 -0.974031  0.000271  0.000168
  5C   1dyz       0.000649  0.366000  0.000266 -0.268964 -0.000085 -0.000178
  5C   1dx2y2    -0.435075  0.000799 -0.104932 -0.000174 -0.422256 -0.067873
  5C   1dxy      -0.538244  0.001348 -0.447889  0.000119  0.320779  0.766212
  6H   1s        -0.407184  0.000471  0.184673  0.000011 -0.084292 -0.016237
  6H   2s         0.127012 -0.000003 -0.406019  0.000131  0.310230 -0.025027
  7O   1s        -0.019962  0.000049 -0.024054  0.000003 -0.003336  0.002064
  7O   2s         0.344496 -0.000804  0.269893 -0.000039  0.126341 -0.367488
  7O   1pz        0.000061  0.018004  0.000041 -0.006990  0.000006 -0.000033
  7O   1px       -0.280254  0.000690 -0.316116  0.000051 -0.076136  0.187287
  7O   1py       -0.087002  0.000310 -0.178918  0.000016 -0.043932  0.042197
  7O   3s         0.034205 -0.000402  0.611503 -0.000140 -0.134954  0.662206
  7O   2pz       -0.000090 -0.092129  0.000106  0.530939 -0.000072  0.000056
  7O   2px        0.145426 -0.000087 -0.205771  0.000102  0.143274 -0.404100
  7O   2py       -0.087263 -0.000208  0.359813 -0.000044 -0.120402 -0.188230
  7O   4s         0.720265 -0.001689  0.518933 -0.000119  0.251270 -0.157522
  7O   3pz        0.000050  0.025286  0.000023 -0.143047  0.000109  0.000055
  7O   3px       -0.259209  0.000679 -0.288325  0.000024 -0.216904  0.106902
  7O   3py       -0.066865  0.000257 -0.158607  0.000067  0.068895  0.157720
  7O   1dz2       0.217263 -0.000458  0.074906  0.000214  0.015832 -0.142538
  7O   1dxz       0.000298  0.193948 -0.000075 -0.897333  0.000103 -0.000017
  7O   1dyz      -0.000247 -0.100232 -0.000063 -0.431774  0.000051 -0.000010
  7O   1dx2y2     0.028729 -0.000174  0.220634 -0.000200 -0.358678 -0.084430
  7O   1dxy       0.090573  0.000319 -0.482724  0.000001  0.164229  0.222860
                     78        79   
                   3.36320   3.49308
                   0.00000   0.00000
                  --------  --------
  0C   1s        -0.031972  0.014505
  0C   2s         0.258250  0.182553
  0C   1pz        0.000142  0.000040
  0C   1px        0.447960  0.093023
  0C   1py        0.256296  0.009159
  0C   3s         1.222233 -0.261782
  0C   2pz        0.000210 -0.000016
  0C   2px        0.672804 -0.520933
  0C   2py        0.246650  0.323631
  0C   4s        -1.324673 -1.203711
  0C   3pz       -0.000167 -0.000140
  0C   3px       -0.235856 -0.333517
  0C   3py       -0.252496 -0.005016
  0C   1dz2      -0.220339  0.079371
  0C   1dxz       0.000223  0.000017
  0C   1dyz       0.000153  0.000071
  0C   1dx2y2     0.200461 -0.078731
  0C   1dxy       0.498553  0.089997
  1C   1s         0.018447 -0.017711
  1C   2s        -0.023459 -0.059788
  1C   1pz        0.000088 -0.000009
  1C   1px        0.472029  0.058231
  1C   1py        0.035826 -0.031285
  1C   3s        -1.395075  0.864506
  1C   2pz        0.000192 -0.000198
  1C   2px        0.680469  0.499031
  1C   2py        0.222537 -0.128861
  1C   4s         1.235007  0.880116
  1C   3pz       -0.000052  0.000011
  1C   3px       -0.705743 -0.275199
  1C   3py       -0.245765 -0.121287
  1C   1dz2       0.139534 -0.072850
  1C   1dxz      -0.000274 -0.000011
  1C   1dyz      -0.000086  0.000037
  1C   1dx2y2    -0.605423 -0.166158
  1C   1dxy      -0.701459 -0.096227
  2H   1s        -0.016896  0.079105
  2H   2s        -0.026899  0.118996
  3H   1s         0.100088  0.034078
  3H   2s         0.012341 -0.321869
  4H   1s        -0.138656 -0.097667
  4H   2s         0.130665 -0.046995
  5C   1s         0.028092 -0.028753
  5C   2s         0.194244 -1.288384
  5C   1pz       -0.000037  0.000228
  5C   1px        0.256916 -1.266586
  5C   1py        0.126535 -0.523444
  5C   3s         0.425956 -3.504736
  5C   2pz       -0.000065  0.000225
  5C   2px        0.338224 -1.606065
  5C   2py        0.567420 -1.330561
  5C   4s         0.185328  0.078473
  5C   3pz        0.000026 -0.000051
  5C   3px        0.327552 -0.357141
  5C   3py        0.226979 -0.123442
  5C   1dz2       0.009053  0.527948
  5C   1dxz       0.000081  0.000255
  5C   1dyz      -0.000036  0.000107
  5C   1dx2y2    -0.824303 -0.653519
  5C   1dxy       0.463034 -0.523346
  6H   1s        -0.332313 -0.001666
  6H   2s         0.554959 -0.367883
  7O   1s         0.005479 -0.079613
  7O   2s         0.361821 -0.675130
  7O   1pz        0.000021  0.000041
  7O   1px       -0.128436 -0.259436
  7O   1py       -0.066752 -0.136091
  7O   3s        -0.919773  4.016295
  7O   2pz       -0.000111  0.000394
  7O   2px        0.796348 -2.472700
  7O   2py       -0.178697 -0.945512
  7O   4s        -0.418867  1.245689
  7O   3pz       -0.000029  0.000078
  7O   3px       -0.103585  0.007614
  7O   3py        0.094638  0.003305
  7O   1dz2       0.169919 -0.736419
  7O   1dxz       0.000152 -0.000356
  7O   1dyz      -0.000078 -0.000158
  7O   1dx2y2    -0.620620  0.887348
  7O   1dxy       0.332172  0.958465



                    ********************************
                    * MULLIKEN POPULATION ANALYSIS *
                    ********************************

-----------------------
MULLIKEN ATOMIC CHARGES
-----------------------
   0 C :   -0.481090
   1 C :   -0.036497
   2 H :    0.218362
   3 H :    0.229786
   4 H :    0.258032
   5 C :    0.117174
   6 H :    0.182243
   7 O :   -0.488010
Sum of atomic charges:    0.0000000

--------------------------------
MULLIKEN REDUCED ORBITAL CHARGES
--------------------------------
  0 C s       :     3.297862  s :     3.297862
      pz      :     0.914716  p :     3.141110
      px      :     1.105101
      py      :     1.121293
      dz2     :     0.005199  d :     0.042118
      dxz     :     0.006645
      dyz     :     0.001390
      dx2y2   :     0.015915
      dxy     :     0.012968

  1 C s       :     2.928952  s :     2.928952
      pz      :     1.005858  p :     3.062847
      px      :     0.977995
      py      :     1.078994
      dz2     :     0.004511  d :     0.044698
      dxz     :     0.005967
      dyz     :     0.002714
      dx2y2   :     0.016337
      dxy     :     0.015170

  2 H s       :     0.781638  s :     0.781638

  3 H s       :     0.770214  s :     0.770214

  4 H s       :     0.741968  s :     0.741968

  5 C s       :     3.252260  s :     3.252260
      pz      :     0.663295  p :     2.523831
      px      :     0.845013
      py      :     1.015523
      dz2     :     0.006704  d :     0.106735
      dxz     :     0.019727
      dyz     :     0.003297
      dx2y2   :     0.041092
      dxy     :     0.035914

  6 H s       :     0.817757  s :     0.817757

  7 O s       :     3.924400  s :     3.924400
      pz      :     1.362211  p :     4.531856
      px      :     1.400090
      py      :     1.769555
      dz2     :     0.002308  d :     0.031754
      dxz     :     0.012040
      dyz     :     0.002140
      dx2y2   :     0.007655
      dxy     :     0.007611



                     *******************************
                     * LOEWDIN POPULATION ANALYSIS *
                     *******************************

----------------------
LOEWDIN ATOMIC CHARGES
----------------------
   0 C :   -0.292872
   1 C :   -0.261274
   2 H :    0.203947
   3 H :    0.203955
   4 H :    0.223853
   5 C :    0.119825
   6 H :    0.188193
   7 O :   -0.385627

-------------------------------
LOEWDIN REDUCED ORBITAL CHARGES
-------------------------------
  0 C s       :     3.004612  s :     3.004612
      pz      :     0.913385  p :     3.212328
      px      :     1.154365
      py      :     1.144578
      dz2     :     0.007297  d :     0.075932
      dxz     :     0.009769
      dyz     :     0.002200
      dx2y2   :     0.031301
      dxy     :     0.025365

  1 C s       :     2.951980  s :     2.951980
      pz      :     0.983295  p :     3.218948
      px      :     1.101928
      py      :     1.133726
      dz2     :     0.008183  d :     0.090346
      dxz     :     0.010210
      dyz     :     0.003490
      dx2y2   :     0.034403
      dxy     :     0.034060

  2 H s       :     0.796053  s :     0.796053

  3 H s       :     0.796045  s :     0.796045

  4 H s       :     0.776147  s :     0.776147

  5 C s       :     2.896751  s :     2.896751
      pz      :     0.657774  p :     2.766180
      px      :     1.036361
      py      :     1.072044
      dz2     :     0.013918  d :     0.217244
      dxz     :     0.034861
      dyz     :     0.005114
      dx2y2   :     0.084506
      dxy     :     0.078845

  6 H s       :     0.811807  s :     0.811807

  7 O s       :     3.588788  s :     3.588788
      pz      :     1.363854  p :     4.737009
      px      :     1.566868
      py      :     1.806287
      dz2     :     0.006629  d :     0.059830
      dxz     :     0.013632
      dyz     :     0.002416
      dx2y2   :     0.018439
      dxy     :     0.018714



                      *****************************
                      * MAYER POPULATION ANALYSIS *
                      *****************************

  NA   - Mulliken gross atomic population
  ZA   - Total nuclear charge
  QA   - Mulliken gross atomic charge
  VA   - Mayer's total valence
  BVA  - Mayer's bonded valence
  FA   - Mayer's free valence

  ATOM       NA         ZA         QA         VA         BVA        FA
  0 C      6.4811     6.0000    -0.4811     4.1856     4.1856     0.0000
  1 C      6.0365     6.0000    -0.0365     3.7461     3.7461    -0.0000
  2 H      0.7816     1.0000     0.2184     0.9259     0.9259     0.0000
  3 H      0.7702     1.0000     0.2298     0.9242     0.9242     0.0000
  4 H      0.7420     1.0000     0.2580     0.9097     0.9097     0.0000
  5 C      5.8828     6.0000     0.1172     4.1145     4.1145    -0.0000
  6 H      0.8178     1.0000     0.1822     0.9206     0.9206    -0.0000
  7 O      8.4880     8.0000    -0.4880     1.8248     1.8248    -0.0000

  Mayer bond orders larger than 0.100000
B(  0-C ,  1-C ) :   2.0207 B(  0-C ,  2-H ) :   0.9186 B(  0-C ,  3-H ) :   0.9030 
B(  0-C ,  5-C ) :   0.1717 B(  0-C ,  7-O ) :   0.1057 B(  1-C ,  4-H ) :   0.8284 
B(  1-C ,  5-C ) :   1.0924 B(  1-C ,  7-O ) :  -0.1600 B(  5-C ,  6-H ) :   0.9028 
B(  5-C ,  7-O ) :   1.8671 

-------
TIMINGS
-------

Total SCF time: 0 days 0 hours 0 min 1 sec 

Total time                  ....       1.583 sec
Sum of individual times     ....       1.474 sec  ( 93.1%)

SCF preparation             ....       0.731 sec  ( 46.2%)
Fock matrix formation       ....       0.429 sec  ( 27.1%)
  Startup                   ....       0.006 sec  (  1.5% of F)
  Coulomb+Exchange Fock     ....       0.441 sec  (102.8% of F)
Diagonalization             ....       0.000 sec  (  0.0%)
Density matrix formation    ....       0.045 sec  (  2.8%)
Total Energy calculation    ....       0.033 sec  (  2.1%)
Population analysis         ....       0.019 sec  (  1.2%)
Orbital Transformation      ....       0.023 sec  (  1.4%)
Orbital Orthonormalization  ....       0.000 sec  (  0.0%)
DIIS solution               ....       0.125 sec  (  7.9%)
SOSCF solution              ....       0.069 sec  (  4.3%)
Finished LeanSCF after   1.6 sec

Maximum memory used throughout the entire LEANSCF-calculation: 8.1 MB

-------------------------   --------------------
FINAL SINGLE POINT ENERGY      -190.768588613959
-------------------------   --------------------



           ************************************************************
           *        Program running with 40 parallel MPI-processes    *
           *              working on a common directory               *
           ************************************************************

------------------------------------------------------------------------------
                              ORCA PROPERTY CALCULATIONS
------------------------------------------------------------------------------

GBWName                                 ... o601acrolein_orca_HF.gbw
Number of atoms                         ...      8
Number of basis functions               ...     80
Max core memory                         ...   1000 MB

Electric properties:
Dipole moment                           ... YES
Quadrupole moment                       ...  NO
Static polarizability (Dipole/Dipole)   ...  NO
Static polarizability (Dipole/Quad.)    ...  NO
Static polarizability (Quad./Quad.)     ...  NO
Static polarizability (Velocity)        ...  NO
Static hyperpolarizability              ...  NO

Atomic electric properties:
Dipole moment                           ...  NO
Quadrupole moment                       ...  NO
Static polarizability                   ...  NO

Choice of electric origin               ... Center of mass
Position of electric origin             ...     0.147627     0.024184     0.000014

General magnetic properties:
Magnetizability                         ...  NO

EPR properties:
g-Tensor (aka g-matrix)                 ...  NO
Zero-Field splitting spin-orbit         ...  NO
Zero-field splitting spin-spin          ...  NO
Hyperfine couplings                     ...  NO (   0 nuclei)
Quadrupole couplings                    ...  NO (   0 nuclei)
Contact density                         ...  NO (   0 nuclei)

NMR properties:
Chemical shifts                         ...  NO (   0 nuclei)
Spin-rotation constants                 ...  NO (   0 nuclei)
Spin-spin couplings                     ...  NO (   0 nuclei,    0 pairs)

Choice of magnetic origin               ... GIAO
Position of magnetic origin             ...     0.000000     0.000000     0.000000

Properties with geometric perturbations:
SCF Hessian                             ...  NO
IR spectrum                             ...  NO
VCD spectrum                            ...  NO
X-ray spectroscopy properties:
SCF XES/XAS/RIXS spectra                ...  NO

SCF SOC stabilization energy            ...  NO
Diagonal Born-Oppenheimer correction    ...  NO

-------------
DIPOLE MOMENT
-------------

Method             : SCF
Type of density    : Electron Density
Multiplicity       :   1
Irrep              :   0
Energy             :  -190.7685886139589684 Eh
Basis              : AO
                                X                 Y                 Z
Electronic contribution:      2.962618994       0.348047898       0.000349835
Nuclear contribution   :     -4.428797594      -0.725524652      -0.000414901
                        -----------------------------------------
Total Dipole Moment    :     -1.466178599      -0.377476754      -0.000065066
                        -----------------------------------------
Magnitude (a.u.)       :      1.513990882
Magnitude (Debye)      :      3.848258995



--------------------
Rotational spectrum 
--------------------
 
Rotational constants in cm-1:             1.605071             0.156328             0.142454 
Rotational constants in MHz :         48118.830077          4686.593709          4270.648635 

Dipole components along the rotational axes: 
x,y,z [a.u.] :     1.467176    -0.373583    -0.000061 
x,y,z [Debye]:     3.729264    -0.949573    -0.000155 

 

Dipole moment calculation done in   0.0 sec 

Maximum memory used throughout the entire PROP-calculation: 2.5 MB

--------------------------------
SUGGESTED CITATIONS FOR THIS RUN
--------------------------------

Below you find a list of papers that are relevant to this ORCA run
We neither can nor want to force you to cite these papers, but we appreciate if you do
You receive ORCA, which is the product of decades of hard work by many enthusiastic individuals, for free
The only thing we kindly ask in return is that you cite our papers,
We deeply appreciate it, if you show your appreciation for ORCA by not just citing the generic ORCA reference.

Please note that relegating all ORCA citations to the supporting information does *not* help us.
SI sections are not indexed - citations you put there will not count into any citation statistics
But we need these citations in order to attract the funding resources that allow us to do what we are doing

Therefore, if you are a happy ORCA user, please consider citing a few of the papers listed below in the main body of your paper

In addition to the list printed below, the program has created the file o601acrolein_orca_HF.bibtex that contains the list in bibtex format
You can import this file easily into all common literature databanks and citation aid programs


List of essential papers. We consider these as the minimum necessary citations

  1. Neese, F.
     Software update: the ORCA program system, version 6.0
     WIRES Comput. Molec. Sci. 2025 15(1), e70019
     doi.org/10.1002/wcms.7019

List of papers to cite with high priority. The work reported in these papers was absolutely
necessary for this run to complete.
Our perspective: the developers of density functionals and basis sets usually get cited in chemistry papers
Good! But without the algorithms to do something with them, the functionals or basis sets would not do anything.
Hence, in our opinion, the algorithm design and method developments papers are equally worthy of getting cited

  1. Neese, F.
     The SHARK Integral Generation and Digestion System
     J. Comp. Chem. 2022 44(3), 381
     doi.org/10.1002/jcc.26942

List of suggested additional citations. These are papers that are important in the 'surrounding' of 
of this run, or papers that preceded the highly important papers. If you like your results we are grateful for a citation.

  1. Neese, F.
     The ORCA program system
     WIRES Comput. Molec. Sci. 2012 2(1), 73-78
     doi.org/10.1002/wcms.81
  2. Neese, F.
     Software update: the ORCA program system, version 4.0
     WIRES Comput. Molec. Sci. 2018 8(1), 1-6
     doi.org/10.1002/wcms.1327
  3. Neese, F.; Wennmohs, F.; Becker, U.; Riplinger, C.
     The ORCA quantum chemistry program package
     J. Chem. Phys. 2020 152(22), 224108
     doi.org/10.1063/5.0004608
  4. Neese, F.
     Software update: The ORCA program system—Version 5.0
     WIRES Comput. Molec. Sci. 2022 12(1), e1606
     doi.org/10.1002/wcms.1606

List of optional additional citations

  1. Neese, F.
     Approximate second-order SCF convergence for spin unrestricted wavefunctions
     Chem. Phys. Lett. 2000 325(1-3), 93-98
     doi.org/10.1016/s0009-2614(00)00662-x

Timings for individual modules:

Sum of individual times          ...        5.231 sec (=   0.087 min)
Startup calculation              ...        1.409 sec (=   0.023 min)  26.9 %
SCF iterations                   ...        2.863 sec (=   0.048 min)  54.7 %
Property calculations            ...        0.960 sec (=   0.016 min)  18.3 %
                             ****ORCA TERMINATED NORMALLY****
TOTAL RUN TIME: 0 days 0 hours 0 minutes 6 seconds 307 msec
