[Molden Format]
[Title]
 Molden file created by orca_2mkl for BaseName=o601acrolein_orca_B3LYPG

[Atoms] AU
C    1   6         -3.3109929387        -0.2693710118        -0.0002003110 
C    2   6         -1.0635964497         0.8473588676         0.0004705418 
H    3   1         -3.4731900225        -2.3145630250        -0.0000566918 
H    4   1         -5.0570016207         0.7976590703        -0.0005782562 
H    5   1         -0.8430956455         2.8850845729        -0.0003307021 
C    6   6          1.2765081137        -0.6586375878         0.0001341706 
H    7   1          0.9922517292        -2.7361023440         0.0001889726 
O    8   8          3.3711901647         0.2314782233        -0.0002059801 
[GTO]
  1 0
s   6 1.0 
     3047.5249000000         0.5363343823
      457.3695100000         0.9894506076
      103.9486900000         1.5972822308
       29.2101550000         2.0791870615
        9.2866630000         1.7741742532
        3.1639270000         0.6125798260
s   3 1.0 
        7.8682724000        -0.3995563516
        1.8812885000        -0.1841552393
        0.5442493000         0.5163903794
p   3 1.0 
        7.8682724000         1.2960827175
        1.8812885000         0.9937536282
        0.5442493000         0.4959527138
s   1 1.0 
        0.1687144000         0.1876178721
p   1 1.0 
        0.1687144000         0.1541275509
s   1 1.0 
        0.0438000000         0.0682363322
p   1 1.0 
        0.0438000000         0.0285616127
d   1 1.0 
        0.8000000000         1.9292013661

  2 0
s   6 1.0 
     3047.5249000000         0.5363343823
      457.3695100000         0.9894506076
      103.9486900000         1.5972822308
       29.2101550000         2.0791870615
        9.2866630000         1.7741742532
        3.1639270000         0.6125798260
s   3 1.0 
        7.8682724000        -0.3995563516
        1.8812885000        -0.1841552393
        0.5442493000         0.5163903794
p   3 1.0 
        7.8682724000         1.2960827175
        1.8812885000         0.9937536282
        0.5442493000         0.4959527138
s   1 1.0 
        0.1687144000         0.1876178721
p   1 1.0 
        0.1687144000         0.1541275509
s   1 1.0 
        0.0438000000         0.0682363322
p   1 1.0 
        0.0438000000         0.0285616127
d   1 1.0 
        0.8000000000         1.9292013661

  3 0
s   3 1.0 
       18.7311370000         0.2149354183
        2.8253937000         0.3645711272
        0.6401217000         0.4150514277
s   1 1.0 
        0.1612778000         0.1813806839

  4 0
s   3 1.0 
       18.7311370000         0.2149354183
        2.8253937000         0.3645711272
        0.6401217000         0.4150514277
s   1 1.0 
        0.1612778000         0.1813806839

  5 0
s   3 1.0 
       18.7311370000         0.2149354183
        2.8253937000         0.3645711272
        0.6401217000         0.4150514277
s   1 1.0 
        0.1612778000         0.1813806839

  6 0
s   6 1.0 
     3047.5249000000         0.5363343823
      457.3695100000         0.9894506076
      103.9486900000         1.5972822308
       29.2101550000         2.0791870615
        9.2866630000         1.7741742532
        3.1639270000         0.6125798260
s   3 1.0 
        7.8682724000        -0.3995563516
        1.8812885000        -0.1841552393
        0.5442493000         0.5163903794
p   3 1.0 
        7.8682724000         1.2960827175
        1.8812885000         0.9937536282
        0.5442493000         0.4959527138
s   1 1.0 
        0.1687144000         0.1876178721
p   1 1.0 
        0.1687144000         0.1541275509
s   1 1.0 
        0.0438000000         0.0682363322
p   1 1.0 
        0.0438000000         0.0285616127
d   1 1.0 
        0.8000000000         1.9292013661

  7 0
s   3 1.0 
       18.7311370000         0.2149354183
        2.8253937000         0.3645711272
        0.6401217000         0.4150514277
s   1 1.0 
        0.1612778000         0.1813806839

  8 0
s   6 1.0 
     5484.6717000000         0.8317352088
      825.2349500000         1.5308074829
      188.0469600000         2.4771490916
       52.9645000000         3.2562802462
       16.8975700000         2.7928936336
        5.7996353000         0.9549376963
s   3 1.0 
       15.5396160000        -0.6179336976
        3.5999336000        -0.2757210088
        1.0137618000         0.8142076427
p   3 1.0 
       15.5396160000         3.1169455889
        3.5999336000         2.4014372483
        1.0137618000         1.0543605133
s   1 1.0 
        0.2700058000         0.2669561389
p   1 1.0 
        0.2700058000         0.2774319373
s   1 1.0 
        0.0845000000         0.1116998588
p   1 1.0 
        0.0845000000         0.0649398041
d   1 1.0 
        0.8000000000         1.9292013661

[5D]
[7F]
[9G]
[MO]
 Sym=     1a
 Ene= -1.91601667507717E+01
 Spin= Alpha
 Occup= 2.000000
  1      -0.000021806780
  2      -0.000200680162
  3      -0.000247034167
  4       0.000163331380
  5      -0.000000040357
  6      -0.001971560146
  7       0.000801167578
  8      -0.001615901823
  9      -0.000000399627
 10       0.003254020866
 11       0.000812563804
 12       0.000457086807
 13       0.000000014271
 14      -0.000082962237
 15      -0.000000055567
 16      -0.000000013932
 17      -0.000015119554
 18       0.000102109175
 19       0.000044058713
 20       0.000081526035
 21      -0.000058942488
 22       0.000184128396
 23       0.000000040830
 24      -0.002145396178
 25      -0.003728937069
 26      -0.001384784043
 27       0.000000458440
 28       0.008960432696
 29       0.004063387509
 30      -0.001063405840
 31       0.000000217646
 32       0.000036169743
 33       0.000000122112
 34       0.000000048571
 35      -0.000346137964
 36       0.000062254850
 37      -0.000199440485
 38      -0.000558197912
 39       0.000176144127
 40       0.001109663167
 41       0.000189571050
 42       0.000938271096
 43       0.000243788520
 44       0.000205046960
 45      -0.000331791307
 46      -0.000255423630
 47       0.000000022444
 48       0.007974922429
 49       0.004625668981
 50       0.005447540773
 51      -0.000000611611
 52      -0.016918841515
 53       0.000834311724
 54      -0.003536594845
 55      -0.000000225066
 56       0.000315387488
 57       0.000000205271
 58       0.000000120570
 59      -0.000791572680
 60      -0.000760905688
 61      -0.000125933786
 62       0.001880222647
 63       0.995130545087
 64       0.030271448148
 65      -0.001971473114
 66      -0.000755765385
 67       0.000000323474
 68      -0.021890585947
 69       0.004388995332
 70       0.001083646504
 71      -0.000000749702
 72       0.008931668285
 73      -0.000741576803
 74       0.000156257996
 75       0.000000057944
 76      -0.000048404481
 77       0.000000009363
 78      -0.000000007825
 79      -0.000096088396
 80       0.000082187275
 Sym=     1a
 Ene= -1.02832279824557E+01
 Spin= Alpha
 Occup= 2.000000
  1      -0.000057776895
  2      -0.000471652757
  3      -0.000337760262
  4       0.000142456213
  5      -0.000000001948
  6      -0.000107573436
  7       0.001412944107
  8      -0.001295872642
  9       0.000000031343
 10      -0.017227918952
 11      -0.002115913671
 12      -0.003101699992
 13      -0.000001522748
 14      -0.000187339187
 15      -0.000000034736
 16       0.000000085800
 17      -0.000094127394
 18      -0.000011568827
 19       0.001909421415
 20      -0.000262709190
 21      -0.000619283055
 22       0.000545735673
 23       0.000000092730
 24       0.002379038662
 25       0.000428007000
 26      -0.001100853582
 27      -0.000000119080
 28       0.003176964385
 29      -0.011269712177
 30      -0.001289435132
 31      -0.000000610435
 32       0.000633734147
 33       0.000000285256
 34      -0.000000182785
 35      -0.000385728356
 36       0.001103390166
 37      -0.000262578994
 38      -0.000733816000
 39       0.000031985831
 40       0.001542231894
 41      -0.000172841466
 42       0.000146408367
 43       0.995321252120
 44       0.038474910924
 45       0.002026995477
 46       0.001273338340
 47      -0.000000415866
 48      -0.024973093361
 49       0.002094157999
 50       0.001345735852
 51      -0.000000073606
 52       0.012319656258
 53      -0.001469969265
 54       0.005073262342
 55       0.000000776954
 56      -0.001153063392
 57      -0.000000500445
 58      -0.000000110161
 59       0.001107884275
 60       0.000658618456
 61      -0.000656778064
 62       0.004687111855
 63      -0.000060724970
 64       0.000599225694
 65       0.000911384894
 66       0.000399206160
 67      -0.000000127860
 68      -0.004854627544
 69       0.003693587036
 70       0.001565337396
 71      -0.000000698297
 72       0.008206859859
 73      -0.005645729913
 74      -0.002251023848
 75       0.000000924137
 76       0.001011223985
 77       0.000000461672
 78       0.000000210933
 79      -0.001033687890
 80      -0.001198611943
 Sym=     1a
 Ene= -1.02230828722819E+01
 Spin= Alpha
 Occup= 2.000000
  1       0.994054522317
  2       0.036564378550
  3       0.000867518263
  4       0.000362210453
  5       0.000000450994
  6      -0.028462717861
  7      -0.002096292228
  8      -0.000927802502
  9      -0.000000937615
 10       0.020565688570
 11       0.006206426718
 12       0.003633485284
 13       0.000001532221
 14      -0.000631358395
 15       0.000000393587
 16       0.000000123577
 17       0.000372703379
 18       0.000446973729
 19       0.046925918309
 20       0.000390499550
 21       0.001588592333
 22       0.000787178952
 23       0.000000470287
 24       0.005108226651
 25      -0.003516974396
 26      -0.001219147060
 27      -0.000001008745
 28       0.019537551092
 29       0.012320227455
 30      -0.006538245317
 31       0.000000005848
 32       0.000691128425
 33      -0.000000606559
 34      -0.000000305473
 35      -0.000669111488
 36      -0.000906143506
 37      -0.000798479313
 38       0.003977822321
 39      -0.000955788460
 40       0.004340962111
 41      -0.000182786311
 42      -0.000081419004
 43      -0.000104729814
 44      -0.000339887003
 45       0.000046752872
 46       0.000024585338
 47       0.000000079779
 48      -0.001095086301
 49      -0.001702197593
 50      -0.000759710070
 51       0.000000136577
 52      -0.039982332745
 53       0.009994903591
 54      -0.005168489828
 55      -0.000001813932
 56      -0.000054638660
 57       0.000000093876
 58       0.000000099294
 59      -0.000113560868
 60      -0.000004551481
 61      -0.000286866791
 62       0.000178416328
 63      -0.000014903089
 64      -0.000188840644
 65       0.000031757068
 66       0.000014450447
 67      -0.000000015009
 68       0.001124764104
 69      -0.000702281096
 70      -0.000332051907
 71       0.000000063115
 72       0.003563220011
 73      -0.001464538805
 74       0.000091926006
 75       0.000000712154
 76      -0.000060292401
 77      -0.000000037047
 78       0.000000011438
 79       0.000074231893
 80       0.000047715690
 Sym=     1a
 Ene= -1.02140741001619E+01
 Spin= Alpha
 Occup= 2.000000
  1      -0.047037697494
  2      -0.003139948433
  3      -0.001547734541
  4      -0.000796041175
  5      -0.000000513729
  6       0.008460081429
  7       0.003510672726
  8       0.000509631521
  9       0.000000527203
 10      -0.043261112370
 11      -0.009644578740
 12      -0.003223138424
 13      -0.000002918089
 14       0.000798693896
 15      -0.000000752629
 16      -0.000000434845
 17      -0.000699163652
 18      -0.001088346165
 19       0.994073794033
 20       0.037771121917
 21      -0.000565004647
 22      -0.000983670747
 23      -0.000000788159
 24      -0.031854642608
 25       0.000100880579
 26       0.003727123329
 27       0.000002449138
 28       0.076919609465
 29      -0.003192348122
 30      -0.013907019994
 31      -0.000003809249
 32      -0.000773952941
 33       0.000000325434
 34      -0.000000067432
 35       0.000601251177
 36       0.000446343008
 37      -0.000228535819
 38      -0.000597742439
 39      -0.000159064894
 40       0.000566844755
 41      -0.000853857950
 42       0.002973854046
 43      -0.001727818664
 44      -0.000664419004
 45       0.000495500509
 46      -0.000432393825
 47      -0.000000041856
 48       0.004278870096
 49      -0.004298044112
 50       0.000768488858
 51      -0.000000028892
 52      -0.033312889618
 53       0.007487056509
 54      -0.004381861940
 55      -0.000001794625
 56       0.000682739673
 57       0.000000310594
 58      -0.000000272908
 59      -0.000469648402
 60       0.001020586651
 61      -0.000318775158
 62      -0.000230759326
 63      -0.000012549961
 64      -0.000205678340
 65       0.000120632186
 66       0.000053878688
 67       0.000000022810
 68       0.000677942595
 69      -0.000579130407
 70      -0.000889026248
 71      -0.000000020713
 72       0.003853094568
 73      -0.000930794199
 74       0.000582594882
 75       0.000001093581
 76      -0.000248743748
 77      -0.000000093163
 78      -0.000000039768
 79      -0.000063077296
 80       0.000114332026
 Sym=     1a
 Ene= -1.06386350240247E+00
 Spin= Alpha
 Occup= 2.000000
  1       0.003690568386
  2      -0.008479403521
  3      -0.006459878097
  4      -0.000172463234
  5      -0.000000711877
  6      -0.014365320454
  7       0.004230910041
  8      -0.010513743965
  9      -0.000002633995
 10      -0.068447910676
 11      -0.015277429521
 12      -0.004452906701
 13      -0.000005029441
 14       0.000091093230
 15      -0.000000341653
 16       0.000000007526
 17      -0.000399097248
 18      -0.000186401260
 19       0.019490445203
 20      -0.036198436069
 21      -0.025817449841
 22       0.009682344383
 23       0.000005932555
 24      -0.021763530362
 25      -0.019848227957
 26      -0.006864113912
 27       0.000002587032
 28       0.114492140543
 29      -0.001762324939
 30      -0.020003594761
 31      -0.000005110425
 32       0.003451675795
 33       0.000001631231
 34      -0.000000156653
 35      -0.003301496946
 36       0.003245585478
 37      -0.002597000592
 38      -0.003813499155
 39      -0.000199445163
 40       0.008407450068
 41      -0.006918953307
 42       0.003597641300
 43       0.118525807900
 44      -0.226474679133
 45      -0.170135539570
 46      -0.077433553264
 47       0.000028470921
 48      -0.070801108365
 49       0.022724399465
 50       0.026095302406
 51      -0.000002682369
 52      -0.063416114262
 53      -0.002964631523
 54      -0.010111765219
 55      -0.000001693944
 56       0.015606436797
 57       0.000006966774
 58       0.000003359481
 59      -0.016234475084
 60      -0.018481158077
 61      -0.027687487455
 62       0.017717153123
 63       0.194316376685
 64      -0.426333026882
 65       0.154268453034
 66       0.063886570863
 67      -0.000024714328
 68      -0.387379645853
 69       0.047772589569
 70       0.016357761702
 71      -0.000008268806
 72       0.021238764103
 73       0.004498681246
 74       0.002014498888
 75       0.000001139321
 76       0.003619835984
 77       0.000002157841
 78       0.000001590347
 79      -0.008454269872
 80      -0.008085846047
 Sym=     1a
 Ene= -8.17218422525784E-01
 Spin= Alpha
 Occup= 2.000000
  1       0.144824565533
  2      -0.275557873411
  3      -0.098019049654
  4      -0.038058839679
  5      -0.000028892284
  6      -0.228624584638
  7      -0.018493985260
  8       0.005029461671
  9      -0.000009378839
 10      -0.026881751066
 11      -0.004104341175
 12       0.002895083117
 13      -0.000005995581
 14       0.013036931257
 15      -0.000006617955
 16      -0.000000226645
 17      -0.003837131046
 18      -0.003389329090
 19       0.160456678965
 20      -0.308850849859
 21       0.062599450249
 22       0.067473804073
 23       0.000055290056
 24      -0.198636873219
 25      -0.002818694095
 26      -0.023215414519
 27       0.000012970270
 28       0.109370221645
 29       0.011360321743
 30      -0.034596235816
 31       0.000006896796
 32       0.011873723232
 33      -0.000003247006
 34       0.000001343013
 35      -0.000531705234
 36      -0.003814098328
 37      -0.074417522804
 38      -0.005598150928
 39      -0.069381708809
 40      -0.012106894612
 41      -0.073670348759
 42       0.005542051534
 43       0.052312978708
 44      -0.101125391841
 45       0.136161767899
 46      -0.011919046370
 47      -0.000012617487
 48      -0.085365959926
 49       0.047374026170
 50       0.013108858931
 51      -0.000007345151
 52      -0.082305107811
 53       0.030431453755
 54      -0.001643303351
 55      -0.000012089214
 56       0.004176743412
 57      -0.000000482836
 58      -0.000000995671
 59       0.000912462488
 60       0.010080773156
 61      -0.033501651334
 62       0.002740508547
 63      -0.038031424645
 64       0.089196822096
 65      -0.000389042726
 66      -0.014657404879
 67       0.000002326757
 68       0.070457018071
 69       0.010361195600
 70      -0.000130899558
 71      -0.000001217380
 72      -0.007437435434
 73      -0.006251844838
 74      -0.000338240177
 75       0.000004228105
 76       0.000814211435
 77       0.000000068329
 78      -0.000000277145
 79      -0.001501136343
 80       0.000536080891
 Sym=     1a
 Ene= -6.59511817309106E-01
 Spin= Alpha
 Occup= 2.000000
  1       0.132612442068
  2      -0.263494319501
  3       0.082134904125
  4      -0.004261059334
  5      -0.000001864674
  6      -0.249840793894
  7       0.038418503646
  8      -0.000378814190
  9       0.000004723879
 10       0.030378059130
 11       0.005931198924
 12       0.009024394227
 13       0.000004521117
 14       0.009884190464
 15      -0.000003986062
 16       0.000001752204
 17       0.005326515805
 18       0.004778160577
 19      -0.057949699842
 20       0.116977329623
 21       0.219086451756
 22      -0.022129885276
 23      -0.000000952731
 24       0.108832786663
 25       0.049056017711
 26       0.001217055466
 27      -0.000003718534
 28       0.053943917746
 29       0.048331461036
 30      -0.007683350867
 31      -0.000001943472
 32      -0.003930928734
 33      -0.000005940021
 34      -0.000002118179
 35      -0.005643234948
 36      -0.013034518116
 37      -0.105132827464
 38      -0.033072338798
 39      -0.134653737356
 40      -0.038905516917
 41       0.045374911407
 42       0.009460722306
 43      -0.113875932160
 44       0.236342393857
 45      -0.177964508540
 46      -0.005006831341
 47       0.000031708000
 48       0.219772774906
 49      -0.038324932251
 50      -0.015515361994
 51       0.000008534297
 52      -0.089927075204
 53       0.006958984742
 54      -0.024964146677
 55      -0.000002956926
 56      -0.005089672627
 57      -0.000000408006
 58       0.000001324918
 59      -0.009828911748
 60      -0.009275530766
 61       0.097739312868
 62       0.026290347414
 63       0.064950524319
 64      -0.152438110069
 65      -0.061971900307
 66      -0.001062208594
 67       0.000010497916
 68      -0.177188757917
 69      -0.031565032578
 70      -0.000297940956
 71       0.000004812174
 72      -0.013453314790
 73       0.008085621693
 74       0.005017826166
 75      -0.000001369769
 76      -0.003568815806
 77      -0.000001820414
 78      -0.000000176505
 79       0.004409687094
 80       0.001243467512
 Sym=     1a
 Ene= -5.86163352096582E-01
 Spin= Alpha
 Occup= 2.000000
  1       0.045458734398
  2      -0.090325009827
  3       0.073131158084
  4       0.153257024345
  5       0.000004267031
  6      -0.104252307708
  7       0.013632398198
  8       0.053380591256
  9       0.000002274593
 10       0.025500007613
 11       0.012162085771
 12       0.004587438751
 13       0.000003355845
 14       0.004353684723
 15      -0.000001259784
 16       0.000002921493
 17       0.003991922651
 18       0.007986991365
 19      -0.094073702519
 20       0.188018403764
 21      -0.013035201866
 22       0.192609456341
 23      -0.000055139588
 24       0.214020332573
 25       0.008129177962
 26       0.058601544968
 27      -0.000021931121
 28      -0.052804894617
 29      -0.007141366660
 30       0.012370001118
 31      -0.000001872906
 32      -0.005251516947
 33      -0.000000120916
 34      -0.000011150143
 35      -0.004843118064
 36       0.004617469975
 37      -0.120410332893
 38      -0.057508989794
 39      -0.034359437891
 40      -0.020440845846
 41       0.171194774233
 42       0.072598569890
 43       0.084744212085
 44      -0.176219488403
 45       0.011468468527
 46       0.229063833310
 47      -0.000011993046
 48      -0.185930390160
 49       0.031960396057
 50       0.073437870869
 51      -0.000005127163
 52       0.028619062354
 53      -0.000403362645
 54       0.016290415669
 55       0.000004629417
 56       0.003791913927
 57       0.000000294893
 58      -0.000000565937
 59       0.006661661063
 60      -0.003912061866
 61      -0.178178856388
 62      -0.083872540021
 63      -0.036748524886
 64       0.087444944103
 65       0.027071922572
 66       0.116996843934
 67      -0.000010432997
 68       0.100442832138
 69       0.015903688358
 70       0.057888652004
 71      -0.000006125041
 72       0.000603732972
 73      -0.000172057902
 74      -0.001474297517
 75      -0.000002509099
 76       0.002548253617
 77       0.000000831759
 78       0.000001650967
 79       0.003636485866
 80      -0.009625012087
 Sym=     1a
 Ene= -4.91754979421096E-01
 Spin= Alpha
 Occup= 2.000000
  1      -0.010530696971
  2       0.021519280097
  3      -0.059484559807
  4      -0.292829589231
  5      -0.000009957016
  6       0.055565123585
  7      -0.010220253815
  8      -0.106856682755
  9       0.000002926020
 10       0.038596885193
 11      -0.004288529120
 12      -0.006077713299
 13       0.000002385153
 14      -0.002730910302
 15      -0.000001970012
 16      -0.000003983089
 17      -0.008505952690
 18      -0.002840581561
 19       0.014862306482
 20      -0.027832669766
 21       0.238878592516
 22      -0.125405214173
 23       0.000043773753
 24      -0.023752303825
 25       0.086081303482
 26      -0.043239243805
 27       0.000013921045
 28      -0.021976979290
 29       0.034381970283
 30      -0.002148811335
 31       0.000004226771
 32       0.000527016113
 33      -0.000006168631
 34       0.000004797095
 35       0.002640329923
 36      -0.001313760208
 37       0.176759615291
 38       0.106573514523
 39      -0.043613482000
 40      -0.025806900192
 41      -0.068176617732
 42      -0.040475085426
 43       0.009490393376
 44      -0.017167047230
 45      -0.148426711347
 46       0.298943337513
 47       0.000040198684
 48      -0.063295317347
 49      -0.048491670636
 50       0.089462262121
 51       0.000012689544
 52      -0.025997070183
 53      -0.013506776683
 54       0.007019962262
 55      -0.000000728363
 56       0.003427029316
 57      -0.000000070078
 58       0.000001280669
 59       0.002099285331
 60      -0.000038230075
 61      -0.148149124981
 62      -0.093544473106
 63      -0.010634005470
 64       0.022093076183
 65      -0.045721439470
 66       0.215059775962
 67       0.000019425417
 68       0.052350471861
 69      -0.037952354539
 70       0.107373733930
 71       0.000012954507
 72       0.022607906753
 73      -0.001821199596
 74       0.005233205639
 75       0.000000304440
 76       0.000273181358
 77      -0.000002831907
 78       0.000001663750
 79       0.012050409625
 80      -0.012656921420
 Sym=     1a
 Ene= -4.87874125604833E-01
 Spin= Alpha
 Occup= 2.000000
  1      -0.009002844623
  2       0.021430760894
  3      -0.353815545354
  4       0.047254299122
  5      -0.000110577277
  6       0.016674905480
  7      -0.139781036972
  8       0.026040103582
  9      -0.000045645134
 10       0.024963348654
 11      -0.016601144458
 12       0.007183544705
 13      -0.000006313394
 14      -0.003200011198
 15      -0.000003209150
 16      -0.000004094900
 17      -0.002293889010
 18      -0.012562758380
 19       0.028821471309
 20      -0.060267370097
 21       0.174618762571
 22       0.208300339631
 23      -0.000012174831
 24      -0.012370809148
 25       0.025474915578
 26       0.041766650550
 27      -0.000012926084
 28      -0.007421345413
 29       0.019849619930
 30       0.004634441219
 31       0.000008352434
 32      -0.002104022049
 33      -0.000002608665
 34      -0.000007510994
 35       0.001278228733
 36      -0.007632441244
 37       0.002812567467
 38       0.006174770160
 39       0.199668824589
 40       0.121609912728
 41       0.094627452210
 42       0.073629461344
 43      -0.053199645049
 44       0.122414714891
 45       0.111578523069
 46       0.100142239569
 47      -0.000011251765
 48       0.143131700696
 49       0.063442157174
 50       0.055049691231
 51      -0.000005274863
 52       0.003946649793
 53      -0.000207633406
 54      -0.001291994994
 55      -0.000005256846
 56      -0.002166811529
 57      -0.000000700976
 58      -0.000000910265
 59      -0.005994204043
 60       0.003794126803
 61      -0.003110001380
 62       0.005950775161
 63       0.066624317786
 64      -0.150677711911
 65      -0.276877015736
 66      -0.061132457354
 67       0.000048900146
 68      -0.278323102598
 69      -0.104194096483
 70      -0.013436518223
 71       0.000018118710
 72      -0.075300475165
 73      -0.007743561230
 74      -0.000373748173
 75       0.000001940937
 76      -0.007026542919
 77      -0.000003789385
 78      -0.000000747112
 79       0.008898534379
 80       0.003937852505
 Sym=     1a
 Ene= -4.33523596984326E-01
 Spin= Alpha
 Occup= 2.000000
  1       0.018169029359
  2      -0.038949052075
  3      -0.246148243328
  4      -0.016971479712
  5      -0.000089316008
  6      -0.043117325539
  7      -0.084841331858
  8      -0.008251627479
  9      -0.000035199991
 10       0.003664736792
 11      -0.014228952536
 12      -0.002401797226
 13      -0.000006087655
 14      -0.002148928844
 15      -0.000002892391
 16      -0.000003137312
 17      -0.000941047713
 18      -0.008914361921
 19       0.003581787714
 20      -0.009115247122
 21       0.191545710743
 22       0.130751158714
 23       0.000001460259
 24       0.021724519364
 25       0.046134963417
 26       0.038562465022
 27      -0.000004879951
 28      -0.018688959561
 29       0.005052822209
 30       0.012360025006
 31       0.000004098467
 32      -0.001915700965
 33      -0.000001991232
 34      -0.000006657649
 35      -0.010034663592
 36      -0.009162313912
 37       0.010503985984
 38       0.014614443245
 39       0.110887083993
 40       0.092228724634
 41       0.094543154708
 42       0.076566385927
 43       0.010902996857
 44      -0.036392348686
 45      -0.273900663292
 46      -0.174045084002
 47       0.000067450393
 48      -0.012861873284
 49      -0.074737046142
 50      -0.050618715754
 51       0.000025874833
 52       0.035680451587
 53      -0.013036698035
 54      -0.003778362976
 55       0.000002101041
 56       0.003581192199
 57       0.000004176535
 58       0.000002919634
 59      -0.020696898937
 60      -0.013509206906
 61       0.115571872386
 62       0.097276168586
 63      -0.057633482864
 64       0.127148852277
 65       0.412355589411
 66       0.147095991229
 67      -0.000046493818
 68       0.253195263126
 69       0.172651025239
 70       0.059705487618
 71      -0.000017284233
 72       0.074682031135
 73       0.025067783101
 74       0.012176570934
 75      -0.000004439905
 76       0.007485227824
 77       0.000002483546
 78       0.000000456259
 79      -0.010904921897
 80      -0.007388714852
 Sym=     1a
 Ene= -4.14215304811663E-01
 Spin= Alpha
 Occup= 2.000000
  1       0.000005527076
  2      -0.000009757512
  3       0.000058171172
  4      -0.000221329765
  5      -0.094101608643
  6      -0.000041966913
  7       0.000019427903
  8      -0.000104070468
  9      -0.046769299650
 10      -0.000127661058
 11      -0.000019944516
 12      -0.000032448515
 13      -0.000834908039
 14      -0.000003684850
 15      -0.006486960070
 16      -0.002029004065
 17      -0.000014016840
 18       0.000008951186
 19       0.000010531136
 20      -0.000028283205
 21       0.000022405994
 22       0.000171230617
 23      -0.171816792774
 24       0.000010732593
 25      -0.000009907879
 26       0.000053799778
 27      -0.086047379033
 28       0.000148261640
 29      -0.000034267014
 30      -0.000006531621
 31      -0.008525339672
 32       0.000004149451
 33      -0.005920718448
 34       0.007096249120
 35      -0.000018268355
 36       0.000007663953
 37       0.000142898673
 38       0.000115980417
 39      -0.000108346480
 40      -0.000080997532
 41       0.000145748924
 42       0.000110108703
 43       0.000013574931
 44      -0.000030076967
 45       0.000025458433
 46      -0.000075452235
 47      -0.367409923259
 48      -0.000041899794
 49       0.000011844802
 50      -0.000020193693
 51      -0.176823418201
 52      -0.000011786537
 53       0.000004173538
 54      -0.000004337740
 55      -0.027074802839
 56       0.000004864811
 57      -0.017364071978
 58      -0.012827893700
 59      -0.000005241223
 60      -0.000003378630
 61       0.000029638012
 62       0.000037128431
 63       0.000004178089
 64      -0.000009036645
 65      -0.000060378706
 66      -0.000087380039
 67      -0.446043693582
 68      -0.000024912932
 69      -0.000029694608
 70      -0.000046450853
 71      -0.257761867680
 72      -0.000008216909
 73      -0.000003406631
 74      -0.000002395318
 75      -0.023714883373
 76      -0.000008796510
 77       0.028950670500
 78       0.011537772742
 79       0.000000660262
 80       0.000006205396
 Sym=     1a
 Ene= -4.05475013419205E-01
 Spin= Alpha
 Occup= 2.000000
  1       0.010470190627
  2      -0.021384806783
  3       0.059527163651
  4      -0.316450302511
  5       0.000075586263
  6      -0.034937080007
  7       0.028723514210
  8      -0.137235325651
  9       0.000037477093
 10       0.012300737184
 11       0.015895558834
 12      -0.032564292660