
                                 *****************
                                 * O   R   C   A *
                                 *****************

                                            #,                                       
                                            ###                                      
                                            ####                                     
                                            #####                                    
                                            ######                                   
                                           ########,                                 
                                     ,,################,,,,,                         
                               ,,#################################,,                 
                          ,,##########################################,,             
                       ,#########################################, ''#####,          
                    ,#############################################,,   '####,        
                  ,##################################################,,,,####,       
                ,###########''''           ''''###############################       
              ,#####''   ,,,,##########,,,,          '''####'''          '####       
            ,##' ,,,,###########################,,,                        '##       
           ' ,,###''''                  '''############,,,                           
         ,,##''                                '''############,,,,        ,,,,,,###''
      ,#''                                            '''#######################'''  
     '                                                          ''''####''''         
             ,#######,   #######,   ,#######,      ##                                
            ,#'     '#,  ##    ##  ,#'     '#,    #''#        ,####,    ,#,          
            ##       ##  ##   ,#'  ##            #'  '#       #'       ,# #          
            ##       ##  #######   ##           ,######,      #####,      #          
            '#,     ,#'  ##    ##  '#,     ,#' ,#      #,     #,   #      #          
             '#######'   ##     ##  '#######'  #'      '#     '####' #    #          



                #########################################################
                #                        -***-                          #
                #          Department of theory and spectroscopy        #
                #                                                       #
                #                      Frank Neese                      #
                #                                                       #
                #     Directorship, Architecture, Infrastructure        #
                #                    SHARK, DRIVERS                     #
                #        Core code/Algorithms in most modules           #
                #                                                       #
                #        Max Planck Institute fuer Kohlenforschung      #
                #                Kaiser Wilhelm Platz 1                 #
                #                 D-45470 Muelheim/Ruhr                 #
                #                      Germany                          #
                #                                                       #
                #                  All rights reserved                  #
                #                        -***-                          #
                #########################################################


                         Program Version 6.1.0  -  RELEASE   -
                                (GIT: $679e74b$)
                          ($2025-06-10 18:02:51 +0200$)


 With contributions from (in alphabetic order):
[Max-Planck-Institut fuer Kohlenforschung]                               
  Daniel Aravena         : Magnetic Suceptibility                        
  Michael Atanasov       : Ab Initio Ligand Field Theory (pilot matlab implementation)
  Alexander A. Auer      : GIAO ZORA, VPT2 properties, NMR spectrum      
  Ute Becker             : All parallelization in ORCA, NUMFREQ, NUMCALC 
  Giovanni Bistoni       : ED, misc. LED, open-shell LED, HFLD           
  Dmytro Bykov           : pre 5.0 version of the SCF Hessian            
  Marcos Casanova-Páez   : Triplet and SCS-CIS(D). UHF-(DLPNO)-IP/EA/STEOM-CCSD. UHF-CVS-IP/STEOM-CCSD   
  Vijay G. Chilkuri      : MRCI spin determinant printing, contributions to CSF-ICE 
  Pauline Colinet        : FMM embedding                                 
  Dipayan Datta          : RHF DLPNO-CCSD density                        
  Achintya Kumar Dutta   : EOM-CC, STEOM-CC                              
  Nicolas Foglia         : Exact transition moments, OPA infrastructure, MCD improvements    
  Dmitry Ganyushin       : Spin-Orbit,Spin-Spin,Magnetic field MRCI      
  Miquel Garcia-Rates    : C-PCM and meta-GGA Hessian, CCSD/C-PCM, Gaussian charge scheme 
  Tiago L. C. Gouveia    : GS-ROHF, GS-ROCIS                             
  Yang Guo               : DLPNO-NEVPT2, F12-NEVPT2, CIM, IAO-localization        
  Andreas Hansen         : Spin unrestricted coupled pair/coupled cluster methods 
  Ingolf Harden          : AUTO-CI MPn and infrastructure                
  Benjamin Helmich-Paris : MC-RPA, TRAH-(SCF,CASSCF), AVAS, COSX integrals, SCF dyn. polar., MC-PDFT, srDFT 
  Lee Huntington         : MR-EOM, pCC                                   
  Robert Izsak           : Overlap fitted RIJCOSX, COSX-SCS-MP3, EOM     
  Riya Kayal             : Wick's Theorem for AUTO-CI, AUTO-CI UHF-CCSDT 
  Emily Kempfer          : AUTO-CI RHF CISDT and CCSDT, approximate NEVPT4
  Christian Kollmar      : KDIIS, OOCD, Brueckner-CCSD(T), CCSD density, CASPT2, CASPT2-K, improved NEVPT2 
  Axel Koslowski         : Symmetry handling                             
  Simone Kossmann        : meta-GGA functionals, TD-DFT gradient, OOMP2, (MP2 Hessian; deprecated post 5.0) 
  Lucas Lang             : DCDCAS, Hyperfine gauge corrections, ICE-SOC+SSC
  Marvin Lechner         : AUTO-CI (C++ implementation), FIC-MRCC        
  Spencer Leger          : CASSCF response                               
  Dagmar Lenk            : GEPOL surface, SMD, ORCA-2-JSON               
  Dimitrios Liakos       : Extrapolation schemes; Compound Job, Property file
  Dimitrios Manganas     : Further ROCIS development; embedding schemes. LFT, Crystal Embedding 
  Dimitrios Pantazis     : SARC Basis sets                               
  Anastasios Papadopoulos: AUTO-CI, single reference methods and gradients 
  Taras Petrenko         : pre 6.0 DFT Hessian and TD-DFT gradient,  ECA, NRVS 
  Petra Pikulova         : Analytic Raman intensities                    
  Peter Pinski           : DLPNO-MP2, DLPNO-MP2 Gradient                 
  Shashank Vittal Rao    : ES-AILFT, MagRelax                            
  Christoph Reimann      : Effective Core Potentials                     
  Marius Retegan         : Local ZFS, SOC                                
  Christoph Riplinger    : Optimizer, TS searches, QM/MM, DLPNO-CCSD(T), (RO)-DLPNO pert. Triples 
  Michael Roemelt        : Original ROCIS implementation, recursive CI coupling coefficients
  Masaaki Saitow         : Open-shell DLPNO-CCSD energy and density      
  Barbara Sandhoefer     : DKH picture change effects                    
  Yorick L. A. Schmerwitz: GMF and freeze-and-release deltaSCF, NEB S-IDPP initial path                    
  Kantharuban Sivalingam : CASSCF convergence/infrastructure, NEVPT2, NEVPT3, NEVPT4(SD), FIC-MRCI and CEPA variants
  Bernardo de Souza      : ESD, SOC TD-DFT                               
  Georgi L. Stoychev     : AutoAux, RI-MP2 NMR, DLPNO-MP2 response, X2C  
  Van Anh Tran           : RI-MP2 g-tensors                              
  Willem Van den Heuvel  : Paramagnetic NMR                              
  Zikuan Wang            : NOTCH, Electric field optimization            
  Frank Wennmohs         : Technical directorship and infrastructure     
  Hang Xu                : AUTO-CI-Response properties                   
                                                                         
[FACCTs GmbH]                                                            
  Markus Bursch, Nicolas Foglia, Miquel Garcia-Rates, Ingolf Harden, Hagen Neugebauer, Anastasios Papadopoulos, 
  Christoph Riplinger, Bernardo de Souza, Georgi L. Stoychev                                                    
                                                                 
  APM, various basis sets, CI-OPT, improved COSX, DLPNO-Multilevel,           
  DOCKER, DRACO, updates on ESD, Fragmentator, GOAT, IRC, LR-CPCM, L-BFGS, MBIS, meta-GGA TD-DFT gradient, ML-optimized integration grids, 
  MM, NACMEs, nearIR, NEB, NEB-TS, NL-DFT gradient (VV10), 2- and 3-layer-ONIOM, interface openCOSMO-RS, QMMM,   
  Crystal-QMMM, RESP, rigid body optimization, SF, symmetry and pop. for TD-DFT, various functionals, SOLVATOR                                   
                                                                         
[Other institutions]                                                     
  V. Asgeirsson          : NEB                                           
  Christoph Bannwarth    : sTDA-DFT, sTD-DFT, PBEh-3c, B97-3c, D3        
  Giovanni Bistoni       : ETS/NOCV, ADLD/ADEX, COVALED                  
  Martin Brehm           : Molecular dynamics                            
  Ronald Cardenas        : ETS/NOCV                                      
  Martina Colucci        : COVALED                                       
  Sebastian Ehlert       : rSCAN, r2SCAN, r2SCAN-3c, D4, dhf basis sets  
  Marvin Friede          : D4 for Fr, Ra, Ac-Lr                          
  Lars Goerigk           : TD-DFT with DH, B97 family of functionals     
  Stefan Grimme          : VdW corrections, initial TS optimization, DFT functionals, gCP, sTDA/sTD-DF 
  Waldemar Hujo          : DFT-NL                                        
  H. Jonsson             : NEB                                           
  Holger Kruse           : gCP                                           
  Marcel Mueller         : wB97X-3c, vDZP basis set                      
  Hagen Neugebauer       : wr2SCAN, Native XTB                           
  Gianluca Regni         : ADLD/ADEX                                     
  Tobias Risthaus        : pre 6.0 range-separated hybrid DFT and stability analysis
  Lukas Wittmann         : regularized MP2, r2SCAN double-hybrids, wr2SCAN        
                                                                         
We gratefully acknowledge several colleagues who have allowed us to      
interface, adapt or use parts of their codes:                            
  Ed Valeev, F. Pavosevic, A. Kumar             : LibInt (2-el integral package), F12 methods 
  Garnet Chan, S. Sharma, J. Yang, R. Olivares  : DMRG                   
  Ulf Ekstrom                                   : XCFun DFT Library      
  Mihaly Kallay                                 : mrcc  (arbitrary order and MRCC methods)
  Frank Weinhold                                : gennbo (NPA and NBO analysis)           
  Simon Mueller                                 : openCOSMO-RS                            
  Christopher J. Cramer and Donald G. Truhlar   : smd solvation model                     
  S Lehtola, MJT Oliveira, MAL Marques          : LibXC Library                           
  Liviu Ungur et al                             : ANISO software                          


 Your calculation uses the libint2 library for the computation of 2-el integrals
 For citations please refer to: http://libint.valeyev.net

 Your ORCA version has been built with support for libXC version: 7.0.0
 For citations please refer to: https://libxc.gitlab.io

 This ORCA versions uses:
   CBLAS   interface :  Fast vector & matrix operations
   LAPACKE interface :  Fast linear algebra routines
   SCALAPACK package :  Parallel linear algebra routines
   Shared memory     :  Shared parallel matrices
   BLAS/LAPACK       :  OpenBLAS 0.3.29  USE64BITINT DYNAMIC_ARCH NO_AFFINITY Haswell SINGLE_THREADED
        Core in use  :  Haswell
   Copyright (c) 2011-2014, The OpenBLAS Project


  ***********************************
  * Starting time: Mon Feb  9 11:49:19 2026
  * Host name:     node30
  * Process ID:    1325760
  * Working dir.:  /scratch/lgardre/134439
  ***********************************

NOTE: MaxCore=1000 MB was set to SCF,MP2,MDCI,CIPSI,MRCI,RASCI and CIS
      => If you want to overwrite this, your respective input block should be placed after the MaxCore statement
Warning: RI is on but no J-basis has been assigned. Assigning Def2/J (nothing to worry about!)
================================================================================

----- Orbital basis set information -----
Your calculation utilizes the basis: 6-31+G*
   H-He, Li-Ne : W. J. Hehre, R. Ditchfield and J.A. Pople, J. Chem. Phys. 56, 2257 (1972).
                 Note: He and Ne are unpublished basis sets taken from the Gaussian program.
                 Note: Li and B from J. D. Dill and J. A. Pople, J. Chem. Phys. 62, 2921 (1975).
   Na - Ar     : M. M. Francl, W. J. Pietro, W. J. Hehre, J. S. Binkley, M. S. Gordon, 
                 D. J. DeFrees and J. A. Pople, J. Chem. Phys. 77, 3654 (1982).
   K - Zn      : V. A. Rassolov, J. A. Pople, M. A. Ratner, and T. L. Windus, J. Chem. Phys. 109, 1223 (1998).
   Additional Pol./Diff. from the 6-311G equivalent.

----- AuxJ basis set information -----
Your calculation utilizes the auxiliary basis: def2/J
   H-Rn: F. Weigend, Phys. Chem. Chem. Phys. 8, 1057 (2006).
   Fr-Lr: K. Eichkorn, F. Weigend, O. Treutler, R. Ahlrichs; Theor. Chem. Acc. 97, 119 (1997).

================================================================================
                                        WARNINGS
                       Please study these warnings very carefully!
================================================================================


WARNING: CIS/ROCIS methods need fully converged wavefunctions
  ===> : Setting SCFConvForced true
         You can overwrite this default with %scf ConvForced false 


================================================================================
                                       INPUT FILE
================================================================================
NAME = o601acrolein_orca.com
|  1> %pal nprocs 40
|  2>    end
|  3> !  B3LYP
|  4> ! PrintBasis 6-31+G* PrintMOs
|  5> 
|  6> %output
|  7>     print[p_mos] 1
|  8> end #output
|  9>  
| 10> %maxcore 1000
| 11> 
| 12> %tddft
| 13>     nroots 49
| 14>     maxdim 5
| 15>     tda true
| 16> end
| 17> 
| 18> * xyz 0 1
| 19>     C   -1.752102   -0.142545   -0.000106
| 20>     C   -0.562831    0.448403    0.000249
| 21>     H   -1.837933   -1.224814   -0.000030
| 22>     H   -2.676050    0.422103   -0.000306
| 23>     H   -0.446147    1.526721   -0.000175
| 24>     C   0.675499    -0.348536    0.000071
| 25>     H   0.525077    -1.447883    0.000100
| 26>     O   1.783957     0.122493   -0.000109
| 27> *
| 28> 
| 29> 
| 30>                          ****END OF INPUT****
================================================================================

                       ****************************
                       * Single Point Calculation *
                       ****************************

---------------------------------
CARTESIAN COORDINATES (ANGSTROEM)
---------------------------------
  C     -1.752102   -0.142545   -0.000106
  C     -0.562831    0.448403    0.000249
  H     -1.837933   -1.224814   -0.000030
  H     -2.676050    0.422103   -0.000306
  H     -0.446147    1.526721   -0.000175
  C      0.675499   -0.348536    0.000071
  H      0.525077   -1.447883    0.000100
  O      1.783957    0.122493   -0.000109

----------------------------
CARTESIAN COORDINATES (A.U.)
----------------------------
  NO LB      ZA    FRAG     MASS         X           Y           Z
   0 C     6.0000    0    12.011   -3.310993   -0.269371   -0.000200
   1 C     6.0000    0    12.011   -1.063596    0.847359    0.000471
   2 H     1.0000    0     1.008   -3.473190   -2.314563   -0.000057
   3 H     1.0000    0     1.008   -5.057002    0.797659   -0.000578
   4 H     1.0000    0     1.008   -0.843096    2.885085   -0.000331
   5 C     6.0000    0    12.011    1.276508   -0.658638    0.000134
   6 H     1.0000    0     1.008    0.992252   -2.736102    0.000189
   7 O     8.0000    0    15.999    3.371190    0.231478   -0.000206

--------------------------------
INTERNAL COORDINATES (ANGSTROEM)
--------------------------------
 C      0   0   0     0.000000000000     0.00000000     0.00000000
 C      1   0   0     1.328000442835     0.00000000     0.00000000
 H      1   2   0     1.085667147287   120.95718851     0.00000000
 H      1   2   3     1.082823767105   122.14709170   179.98900902
 H      2   1   3     1.084612854781   122.59864498   179.97748331
 C      2   1   3     1.472607547959   120.81355365     0.03106361
 H      6   2   1     1.109590287148   114.97237733   359.97315834
 O      6   2   1     1.204386768860   124.21369228   179.97238961

---------------------------
INTERNAL COORDINATES (A.U.)
---------------------------
 C      0   0   0     0.000000000000     0.00000000     0.00000000
 C      1   0   0     2.509557142684     0.00000000     0.00000000
 H      1   2   0     2.051613580968   120.95718851     0.00000000
 H      1   2   3     2.046240371130   122.14709170   179.98900902
 H      2   1   3     2.049621256866   122.59864498   179.97748331
 C      2   1   3     2.782824968387   120.81355365     0.03106361
 H      6   2   1     2.096821763569   114.97237733   359.97315834
 O      6   2   1     2.275961152464   124.21369228   179.97238961

---------------------
BASIS SET INFORMATION
---------------------
There are 3 groups of distinct atoms

 Group   1 Type C   : 11s5p1d contracted to 4s3p1d pattern {6311/311/1}
 Group   2 Type H   : 4s contracted to 2s pattern {31}
 Group   3 Type O   : 11s5p1d contracted to 4s3p1d pattern {6311/311/1}

Atom   0C    basis set group =>   1
Atom   1C    basis set group =>   1
Atom   2H    basis set group =>   2
Atom   3H    basis set group =>   2
Atom   4H    basis set group =>   2
Atom   5C    basis set group =>   1
Atom   6H    basis set group =>   2
Atom   7O    basis set group =>   3

-------------------------
BASIS SET IN INPUT FORMAT
-------------------------

 # Basis set for element : H 
 NewGTO H 
 S 3 
   1      18.7311370000      0.0334945995
   2       2.8253937000      0.2347269467
   3       0.6401217000      0.8137573184
 S 1 
   1       0.1612778000      1.0000000000
  end;

 # Basis set for element : C 
 NewGTO C 
 S 6 
   1    3047.5249000000      0.0018347002
   2     457.3695100000      0.0140373012
   3     103.9486900000      0.0688426061
   4      29.2101550000      0.2321844206
   5       9.2866630000      0.4679413416
   6       3.1639270000      0.3623120322
 S 3 
   1       7.8682724000     -0.1193324086
   2       1.8812885000     -0.1608542116
   3       0.5442493000      1.1434564826
 P 3 
   1       7.8682724000      0.0689990956
   2       1.8812885000      0.3164239798
   3       0.5442493000      0.7443082524
 S 1 
   1       0.1687144000      1.0000000000
 P 1 
   1       0.1687144000      1.0000000000
 S 1 
   1       0.0438000000      1.0000000000
 P 1 
   1       0.0438000000      1.0000000000
 D 1 
   1       0.8000000000      1.0000000000
  end;

 # Basis set for element : O 
 NewGTO O 
 S 6 
   1    5484.6717000000      0.0018310998
   2     825.2349500000      0.0139500985
   3     188.0469600000      0.0684450927
   4      52.9645000000      0.2327142753
   5      16.8975700000      0.4701929501
   6       5.7996353000      0.3585208619
 S 3 
   1      15.5396160000     -0.1107775038
   2       3.5999336000     -0.1480263051
   3       1.0137618000      1.1307670390
 P 3 
   1      15.5396160000      0.0708742995
   2       3.5999336000      0.3397527978
   3       1.0137618000      0.7271585953
 S 1 
   1       0.2700058000      1.0000000000
 P 1 
   1       0.2700058000      1.0000000000
 S 1 
   1       0.0845000000      1.0000000000
 P 1 
   1       0.0845000000      1.0000000000
 D 1 
   1       0.8000000000      1.0000000000
  end;

---------------------------------
AUXILIARY/J BASIS SET INFORMATION
---------------------------------
There are 3 groups of distinct atoms

 Group   1 Type C   : 12s5p4d2f1g contracted to 6s4p3d1f1g pattern {711111/2111/211/2/1}
 Group   2 Type H   : 5s2p1d contracted to 3s1p1d pattern {311/2/1}
 Group   3 Type O   : 12s5p4d2f1g contracted to 6s4p3d1f1g pattern {711111/2111/211/2/1}

Atom   0C    basis set group =>   1
Atom   1C    basis set group =>   1
Atom   2H    basis set group =>   2
Atom   3H    basis set group =>   2
Atom   4H    basis set group =>   2
Atom   5C    basis set group =>   1
Atom   6H    basis set group =>   2
Atom   7O    basis set group =>   3

-------------------------------------
AUXILIARY/J BASIS SET IN INPUT FORMAT
-------------------------------------

 # Auxiliary/J basis set for element : H 
 NewAuxJGTO H 
 S 3 
   1      15.6752927000      0.1007184237
   2       3.6063578000      0.3404257499
   3       1.2080016000      0.6491996172
 S 1 
   1       0.4726794000      1.0000000000
 S 1 
   1       0.2018100000      1.0000000000
 P 2 
   1       2.0281365000      0.5596620919
   2       0.5358730000      0.5596620919
 D 1 
   1       2.2165124000      1.0000000000
  end;

 # Auxiliary/J basis set for element : C 
 NewAuxJGTO C 
 S 7 
   1    1861.0916331000      0.0134602335
   2     642.9939764000      0.0299160374
   3     235.1105725000      0.1008649584
   4      90.7028894000      0.2370970548
   5      36.7794552000      0.3924037254
   6      15.6046273000      0.3195862154
   7       6.8907294000      0.0530104441
 S 1 
   1       3.1478850000     -1.0000000000
 S 1 
   1       1.4777287000      1.0000000000
 S 1 
   1       0.7076466000      1.0000000000
 S 1 
   1       0.3430122000      1.0000000000
 S 1 
   1       0.1669453000      1.0000000000
 P 2 
   1      13.5472892000     -0.6769313712
   2       5.4669419000     -0.3779500978
 P 1 
   1       2.1751721000      1.0000000000
 P 1 
   1       0.8582194000      1.0000000000
 P 1 
   1       0.3376720000      1.0000000000
 D 2 
   1       5.9287253000     -0.3533329857
   2       1.9809209000     -0.7456525731
 D 1 
   1       0.8055417000     -1.0000000000
 D 1 
   1       0.3531244000     -1.0000000000
 F 2 
   1       1.6755626000      0.6311076882
   2       0.5997536000      0.4968166032
 G 1 
   1       1.0024600000     -1.0000000000
  end;

 # Auxiliary/J basis set for element : O 
 NewAuxJGTO O 
 S 7 
   1    2876.8216605000      0.0168151159
   2    1004.7443032000      0.0340137548
   3     369.7579954000      0.1194951309
   4     142.9442404000      0.2664627624
   5      57.8366425000      0.4202764046
   6      24.3864983000      0.2765077335
   7      10.6622662000      0.0057008815
 S 1 
   1       4.8070437000     -1.0000000000
 S 1 
   1       2.2210770000      1.0000000000
 S 1 
   1       1.0447795000      1.0000000000
 S 1 
   1       0.4968425000      1.0000000000
 S 1 
   1       0.2371384000      1.0000000000
 P 2 
   1      64.2613382000     -0.2731534179
   2      16.3006076000     -0.8168011598
 P 1 
   1       4.3550542000      1.0000000000
 P 1 
   1       1.2019554000      1.0000000000
 P 1 
   1       0.3354196000      1.0000000000
 D 2 
   1       9.2146611000     -0.4661230638
   2       2.8435251000     -0.6600908911
 D 1 
   1       0.9955759000     -1.0000000000
 D 1 
   1       0.3649441000     -1.0000000000
 F 2 
   1       2.6420115000      0.5931563945
   2       0.7345613000      0.5931563945
 G 1 
   1       1.3931000000     -1.0000000000
  end;



           ************************************************************
           *        Program running with 40 parallel MPI-processes    *
           *              working on a common directory               *
           ************************************************************
------------------------------------------------------------------------------
                             ORCA STARTUP CALCULATIONS
                           -- RI-GTO INTEGRALS CHOSEN --
------------------------------------------------------------------------------
------------------------------------------------------------------------------
                   ___                                                        
                  /   \      - P O W E R E D   B Y -                         
                 /     \                                                     
                 |  |  |   _    _      __       _____    __    __             
                 |  |  |  | |  | |    /  \     |  _  \  |  |  /  |          
                  \  \/   | |  | |   /    \    | | | |  |  | /  /          
                 / \  \   | |__| |  /  /\  \   | |_| |  |  |/  /          
                |  |  |   |  __  | /  /__\  \  |    /   |      \           
                |  |  |   | |  | | |   __   |  |    \   |  |\   \          
                \     /   | |  | | |  |  |  |  | |\  \  |  | \   \       
                 \___/    |_|  |_| |__|  |__|  |_| \__\ |__|  \__/        
                                                                              
                      - O R C A' S   B I G   F R I E N D -                    
                                      &                                       
                       - I N T E G R A L  F E E D E R -                       
                                                                              
 v1 FN, 2020, v2 2021, v3 2022-2024                                           
------------------------------------------------------------------------------


----------------------
SHARK INTEGRAL PACKAGE
----------------------

Number of atoms                             ...      8
Number of basis functions                   ...     80
Number of shells                            ...     40
Maximum angular momentum                    ...      2
Integral batch strategy                     ... SHARK/LIBINT Hybrid
RI-J (if used) integral strategy            ... SPLIT-RIJ (Revised 2003 algorithm where possible)
Printlevel                                  ...      1
Contraction scheme used                     ... SEGMENTED contraction
Prescreening option                         ... SCHWARTZ
   Thresh                                   ... 1.000e-10
   Tcut                                     ... 1.000e-11
   Tpresel                                  ... 1.000e-11 
Coulomb Range Separation                    ... NOT USED
Exchange Range Separation                   ... NOT USED
Multipole approximations                    ... NOT USED
Finite Nucleus Model                        ... NOT USED
CABS basis                                  ... NOT available
Auxiliary Coulomb fitting basis             ... AVAILABLE
   # of basis functions in Aux-J            ...    240
   # of shells in Aux-J                     ...     80
   Maximum angular momentum in Aux-J        ...      4
Auxiliary J/K fitting basis                 ... NOT available
Auxiliary Correlation fitting basis         ... NOT available
Auxiliary 'external' fitting basis          ... NOT available

Checking pre-screening integrals            ... done (  0.0 sec) Dimension = 40
   => SHARK Basis and OBASIS are compatible. Storing Pre-screening
Shell pair information
Shell pair cut-off parameter TPreSel        ...   1.0e-11
Total number of shell pairs                 ...       820
Shell pairs after pre-screening             ...       809
Total number of primitive shell pairs       ...      3666
Primitive shell pairs kept                  ...      2901
          la=0 lb=0:    293 shell pairs
          la=1 lb=0:    286 shell pairs
          la=1 lb=1:     78 shell pairs
          la=2 lb=0:     94 shell pairs
          la=2 lb=1:     48 shell pairs
          la=2 lb=2:     10 shell pairs

Checking whether 4 symmetric matrices of dimension 80 fit in memory
:Max Core in MB      =   1000.00
 MB in use           =      4.36
 MB left             =    995.64
 MB needed           =      0.10
 Data fit in memory  = YES
Calculating RI/J V-Matrix + Cholesky decomp.... done (  0.0 sec)
Calculating Nuclear repulsion               ... done (  0.0 sec) ENN=    103.418920705790 Eh

Diagonalization of the overlap matrix:
Smallest eigenvalue                        ... 1.111e-04
Time for diagonalization                   ...    0.002 sec
Threshold for overlap eigenvalues          ... 1.000e-07
Number of eigenvalues below threshold      ... 0
Time for construction of square roots      ...    0.001 sec
Total time needed                          ...    0.003 sec

-------------------
DFT GRID GENERATION
-------------------

General Integration Accuracy     IntAcc      ... 4.388
Radial Grid Type                 RadialGrid  ... OptM3 with GC (2021)
Angular Grid (max. ang.)         AngularGrid ... 4 (Lebedev-302)
Angular grid pruning method      GridPruning ... 4 (adaptive)
Weight generation scheme         WeightScheme... mBecke (2022)
Basis function cutoff            BFCut       ... 1.0000e-10
Integration weight cutoff        WCut        ... 1.0000e-14
Partially contracted basis set               ... off
Rotationally invariant grid construction     ... off
Angular grids for H and He will be reduced by one unit
Diffuse basis detected: some atoms will have their outermost
                        angular grid increased by 1.

Total number of grid points                  ...    38551
Total number of batches                      ...      606
Average number of points per batch           ...       63
Average number of grid points per atom       ...     4819

--------------------
COSX GRID GENERATION
--------------------

GRIDX 1
-------
General Integration Accuracy     IntAcc      ... 3.816
Radial Grid Type                 RadialGrid  ... OptM3 with GC (2021)
Angular Grid (max. ang.)         AngularGrid ... 1 (Lebedev-50)
Angular grid pruning method      GridPruning ... 4 (adaptive)
Weight generation scheme         WeightScheme... mBecke (2022)
Basis function cutoff            BFCut       ... 1.0000e-10
Integration weight cutoff        WCut        ... 1.0000e-14
Partially contracted basis set               ... on
Rotationally invariant grid construction     ... off
Angular grids for H and He will be reduced by one unit
Diffuse basis detected: some atoms will have their outermost
                        angular grid increased by 1.

Total number of grid points                  ...     4968
Total number of batches                      ...       42
Average number of points per batch           ...      118
Average number of grid points per atom       ...      621
UseSFitting                                  ... on

GRIDX 2
-------
General Integration Accuracy     IntAcc      ... 4.020
Radial Grid Type                 RadialGrid  ... OptM3 with GC (2021)
Angular Grid (max. ang.)         AngularGrid ... 2 (Lebedev-110)
Angular grid pruning method      GridPruning ... 4 (adaptive)
Weight generation scheme         WeightScheme... mBecke (2022)
Basis function cutoff            BFCut       ... 1.0000e-10
Integration weight cutoff        WCut        ... 1.0000e-14
Partially contracted basis set               ... on
Rotationally invariant grid construction     ... off
Angular grids for H and He will be reduced by one unit
Diffuse basis detected: some atoms will have their outermost
                        angular grid increased by 1.

Total number of grid points                  ...    12023
Total number of batches                      ...       97
Average number of points per batch           ...      123
Average number of grid points per atom       ...     1503
UseSFitting                                  ... on

GRIDX 3
-------
General Integration Accuracy     IntAcc      ... 4.338
Radial Grid Type                 RadialGrid  ... OptM3 with GC (2021)
Angular Grid (max. ang.)         AngularGrid ... 3 (Lebedev-194)
Angular grid pruning method      GridPruning ... 4 (adaptive)
Weight generation scheme         WeightScheme... mBecke (2022)
Basis function cutoff            BFCut       ... 1.0000e-10
Integration weight cutoff        WCut        ... 1.0000e-14
Partially contracted basis set               ... on
Rotationally invariant grid construction     ... off
Angular grids for H and He will be reduced by one unit
Diffuse basis detected: some atoms will have their outermost
                        angular grid increased by 1.

Total number of grid points                  ...    25975
Total number of batches                      ...      206
Average number of points per batch           ...      126
Average number of grid points per atom       ...     3247
UseSFitting                                  ... on
Grids setup in   0.6 sec
Initializing property integral containers    ... done (  0.0 sec)

SHARK setup successfully completed in   0.7 seconds

Maximum memory used throughout the entire STARTUP-calculation: 12.0 MB


           ************************************************************
           *        Program running with 40 parallel MPI-processes    *
           *              working on a common directory               *
           ************************************************************
-------------------------------------------------------------------------------
                                 ORCA GUESS
                   Start orbitals & Density for SCF / CASSCF
-------------------------------------------------------------------------------

------------
SCF SETTINGS
------------
Hamiltonian:
 Density Functional     Method          .... DFT(GTOs)
 Exchange Functional    Exchange        .... B88
   X-Alpha parameter    XAlpha          ....  0.666667
   Becke's b parameter  XBeta           ....  0.004200
 Correlation Functional Correlation     .... LYP
 LDA part of GGA corr.  LDAOpt          .... VWN-5
 Gradients option       PostSCFGGA      .... off
 Hybrid DFT is turned on
   Fraction HF Exchange ScalHFX         ....  0.200000
   Scaling of DF-GGA-X  ScalDFX         ....  0.720000
   Scaling of DF-GGA-C  ScalDFC         ....  0.810000
   Scaling of DF-LDA-C  ScalLDAC        ....  1.000000
   Perturbative correction              ....  0.000000
   NL short-range parameter             ....  4.800000
 RI-approximation to the Coulomb term is turned on
   Number of AuxJ basis functions       .... 240
   RIJ-COSX (HFX calculated with COS-X)).... on


General Settings:
 Integral files         IntName         .... o601acrolein_orca
 Hartree-Fock type      HFTyp           .... RHF
 Total Charge           Charge          ....    0
 Multiplicity           Mult            ....    1
 Number of Electrons    NEL             ....   30
 Basis Dimension        Dim             ....   80
 Nuclear Repulsion      ENuc            ....    103.4189207058 Eh

Convergence Acceleration:
 AO-DIIS                CNVDIIS         .... on
   Start iteration      DIISMaxIt       ....    12
   Startup error        DIISStart       ....  0.200000
   # of expansion vecs  DIISMaxEq       ....     5
   Bias factor          DIISBfac        ....   1.050
   Max. coefficient     DIISMaxC        ....  10.000
 MO-DIIS                CNVKDIIS        .... off
 Trust-Rad. Augm. Hess. CNVTRAH         .... auto
   Auto Start mean grad. ratio tolernc. ....  1.125000
   Auto Start start iteration           ....    50
   Auto Start num. interpolation iter.  ....    10
   Max. Number of Micro iterations      ....    24
   Max. Number of Macro iterations      .... Maxiter - #DIIS iter
   Number of Davidson start vectors     ....     2
   Converg. threshold    (grad. norm)   ....   5.000e-05
   Grad. Scal. Fac. for Micro threshold ....   0.100
   Minimum threshold for Micro iter.    ....   1.000e-02
   NR start threshold (gradient norm)   ....   1.000e-04
   Initial trust radius                 ....   0.400
   Minimum AH scaling param. (alpha)    ....   1.000
   Maximum AH scaling param. (alpha)    .... 1000.000
   Quad. conv. algorithm                .... NR
   White noise on init. David. guess    .... on
   Maximum white noise                  ....   0.010
   Pseudo random numbers                .... off
   Inactive MOs                         .... canonical
   Orbital update algorithm             .... Taylor
   Preconditioner                       .... Diag
   Full preconditioner red. dimension   ....   250
 SOSCF                 CNVSOSCF           .... on
   Start iteration     SOSCFMaxIt         ....   150
   Startup grad/error  SOSCFStart         ....  0.003300
   Hessian update      SOSCFHessUp        .... L-BFGS
   Autom. constraints  SOSCFAutoConstrain .... off
 Level Shifting         CNVShift        .... on
   Level shift para.    LevelShift      ....    0.2500
   Turn off err/grad.   ShiftErr        ....    0.0010
 Zerner damping         CNVZerner       .... off
 Static damping         CNVDamp         .... on
   Fraction old density DampFac         ....    0.7000
   Max. Damping (<1)    DampMax         ....    0.9800
   Min. Damping (>=0)   DampMin         ....    0.0000
   Turn off err/grad.   DampErr         ....    0.1000

SCF Procedure:
 Maximum # iterations   MaxIter         ....   125
 SCF integral mode      SCFMode         .... Direct
   Integral package                     .... SHARK and LIBINT hybrid scheme
 Reset frequency        DirectResetFreq ....    20
 Integral Threshold     Thresh          ....  1.000e-10 Eh
 Primitive CutOff       TCut            ....  1.000e-11 Eh

Convergence Tolerance:
 Convergence Check Mode ConvCheckMode   .... Total+1el-Energy
 Convergence forced     ConvForced      .... 1
 Energy Change          TolE            ....  1.000e-06 Eh
 1-El. energy change                    ....  1.000e-03 Eh
 Orbital Gradient       TolG            ....  5.000e-05
 Orbital Rotation angle TolX            ....  5.000e-05
 DIIS Error             TolErr          ....  1.000e-06

------------------------------
INITIAL GUESS: MODEL POTENTIAL
------------------------------
Loading Hartree-Fock densities                     ... done
Calculating cut-offs                               ... done
Initializing the effective Hamiltonian             ... done
Setting up the integral package (SHARK)            ... done
Starting the Coulomb interaction                   ... done (   0.0 sec)
Making the grid                                    ... done (   0.1 sec)
Mapping shells                                     ... done
Starting the XC term evaluation                    ... done (   0.0 sec)
  promolecular density results
     # of electrons  =     29.999519178
     EX              =    -24.754361873
     EC              =     -0.996889777
     EX+EC           =    -25.751251649
Transforming the Hamiltonian                       ... done (   0.0 sec)
Diagonalizing the Hamiltonian                      ... done (   0.0 sec)
Back transforming the eigenvectors                 ... done (   0.0 sec)
Now organizing SCF variables                       ... done
                      ------------------
                      INITIAL GUESS DONE (   0.1 sec)
                      ------------------
             **** ENERGY FILE WAS UPDATED (o601acrolein_orca.en.tmp) ****
Finished Guess after   0.9 sec
Maximum memory used throughout the entire GUESS-calculation: 6.6 MB


           ************************************************************
           *        Program running with 40 parallel MPI-processes    *
           *              working on a common directory               *
           ************************************************************

-------------------------------------------------------------------------------------------
                                      ORCA LEAN-SCF
                              memory conserving SCF solver
-------------------------------------------------------------------------------------------

----------------------------------------D-I-I-S--------------------------------------------
Iteration    Energy (Eh)           Delta-E    RMSDP     MaxDP     DIISErr   Damp  Time(sec)
-------------------------------------------------------------------------------------------
               ***  Starting incremental Fock matrix formation  ***
    1    -191.6851657754512530     0.00e+00  6.34e-02  1.32e-01  2.43e-01  0.700   0.2
    2    -191.7451702172695605    -6.00e-02  5.41e-02  1.46e-01  9.21e-02  0.700   0.2
                               ***Turning on AO-DIIS***
    3    -191.7659087516614136    -2.07e-02  2.42e-02  6.25e-02  3.44e-02  0.700   0.2
    4    -191.7792881833164529    -1.34e-02  3.38e-02  7.48e-02  1.57e-02  0.000   0.2
    5    -191.8092723845435330    -3.00e-02  1.75e-02  6.03e-02  7.17e-03  0.000   0.2
                              *** Initializing SOSCF ***
---------------------------------------S-O-S-C-F--------------------------------------
Iteration    Energy (Eh)           Delta-E    RMSDP     MaxDP     MaxGrad    Time(sec)
--------------------------------------------------------------------------------------
    6    -191.8095015024668442    -2.29e-04  1.02e-02  3.54e-02  1.43e-03     0.2
               *** Restarting incremental Fock matrix formation ***
    7    -191.8095458513327571    -4.43e-05  9.19e-03  3.18e-02  1.96e-04     0.2
    8    -191.8095467714242091    -9.20e-07  3.08e-03  1.05e-02  3.22e-04     0.2
                 **** Energy Check signals convergence ****

               *****************************************************
               *                     SUCCESS                       *
               *           SCF CONVERGED AFTER   8 CYCLES          *
               *****************************************************

Recomputing exchange energy using gridx3       ... done (    0.122 sec)
Old exchange energy                            :     -5.025248813 Eh
New exchange energy                            :     -5.025221985 Eh
Exchange energy change after final integration :      0.000026828 Eh
Total energy after final integration           :   -191.809520705 Eh
             **** ENERGY FILE WAS UPDATED (o601acrolein_orca.en.tmp) ****

----------------
TOTAL SCF ENERGY
----------------

Total Energy       :       -191.80952070464852 Eh           -5219.40241 eV

Components:
Nuclear Repulsion  :        103.41892070578955 Eh            2814.17190 eV
Electronic Energy  :       -295.22846823857765 Eh           -8033.57504 eV
One Electron Energy:       -463.73413699070119 Eh          -12618.84740 eV
Two Electron Energy:        168.50566875212354 Eh            4585.27236 eV

Virial components:
Potential Energy   :       -382.51830885819004 Eh          -10408.85236 eV
Kinetic Energy     :        190.70878815354152 Eh            5189.44995 eV
Virial Ratio       :          2.00577179773289

DFT components:
N(Alpha)           :       15.000024051711 electrons
N(Beta)            :       15.000024051711 electrons
N(Total)           :       30.000048103421 electrons
E(X)               :      -19.980995347395 Eh       
E(C)               :       -1.183294484819 Eh       
E(XC)              :      -21.164289832214 Eh       

---------------
SCF CONVERGENCE
---------------

  Last Energy change         ...    9.2009e-07  Tolerance :   1.0000e-06
  Last MAX-Density change    ...    1.0520e-02  Tolerance :   1.0000e-05
  Last RMS-Density change    ...    3.0800e-03  Tolerance :   1.0000e-06
  Last DIIS Error            ...    1.4260e-03  Tolerance :   1.0000e-06
  Last Orbital Gradient      ...    3.2239e-04  Tolerance :   5.0000e-05
  Last Orbital Rotation      ...    7.0326e-04  Tolerance :   5.0000e-05


----------------
ORBITAL ENERGIES
----------------

  NO   OCC          E(Eh)            E(eV) 
   0   2.0000     -19.156677      -521.2797 
   1   2.0000     -10.279576      -279.7215 
   2   2.0000     -10.219472      -278.0860 
   3   2.0000     -10.210464      -277.8409 
   4   2.0000      -1.060457       -28.8565 
   5   2.0000      -0.813821       -22.1452 
   6   2.0000      -0.656099       -17.8534 
   7   2.0000      -0.582756       -15.8576 
   8   2.0000      -0.488350       -13.2887 
   9   2.0000      -0.484471       -13.1831 
  10   2.0000      -0.430123       -11.7042 
  11   2.0000      -0.410853       -11.1799 
  12   2.0000      -0.402062       -10.9407 
  13   2.0000      -0.303450        -8.2573 
  14   2.0000      -0.267748        -7.2858 
  15   0.0000      -0.074042        -2.0148 
  16   0.0000       0.009582         0.2607 
  17   0.0000       0.022221         0.6047 
  18   0.0000       0.023578         0.6416 
  19   0.0000       0.035856         0.9757 
  20   0.0000       0.064494         1.7550 
  21   0.0000       0.064604         1.7580 
  22   0.0000       0.070562         1.9201 
  23   0.0000       0.093657         2.5485 
  24   0.0000       0.095850         2.6082 
  25   0.0000       0.117718         3.2033 
  26   0.0000       0.131271         3.5721 
  27   0.0000       0.138095         3.7577 
  28   0.0000       0.162684         4.4268 
  29   0.0000       0.192855         5.2479 
  30   0.0000       0.218435         5.9439 
  31   0.0000       0.226396         6.1605 
  32   0.0000       0.256357         6.9758 
  33   0.0000       0.257813         7.0155 
  34   0.0000       0.278077         7.5669 
  35   0.0000       0.295687         8.0461 
  36   0.0000       0.313691         8.5360 
  37   0.0000       0.368818        10.0360 
  38   0.0000       0.399356        10.8670 
  39   0.0000       0.430590        11.7169 
  40   0.0000       0.608373        16.5547 
  41   0.0000       0.633139        17.2286 
  42   0.0000       0.684616        18.6294 
  43   0.0000       0.693900        18.8820 
  44   0.0000       0.719324        19.5738 
  45   0.0000       0.765384        20.8272 
  46   0.0000       0.778402        21.1814 
  47   0.0000       0.866810        23.5871 
  48   0.0000       0.906864        24.6770 
  49   0.0000       0.934244        25.4221 
  50   0.0000       0.964496        26.2453 
  51   0.0000       1.015806        27.6415 
  52   0.0000       1.067770        29.0555 
  53   0.0000       1.103005        30.0143 
  54   0.0000       1.186126        32.2761 
  55   0.0000       1.215352        33.0714 
  56   0.0000       1.224127        33.3102 
  57   0.0000       1.289016        35.0759 
  58   0.0000       1.324841        36.0508 
  59   0.0000       1.355177        36.8762 
  60   0.0000       1.430295        38.9203 
  61   0.0000       1.541681        41.9513 
  62   0.0000       1.643847        44.7313 
  63   0.0000       1.679961        45.7141 
  64   0.0000       1.806683        49.1623 
  65   0.0000       1.827691        49.7340 
  66   0.0000       1.836068        49.9620 
  67   0.0000       1.934631        52.6440 
  68   0.0000       2.010462        54.7075 
  69   0.0000       2.089230        56.8508 
  70   0.0000       2.140554        58.2474 
  71   0.0000       2.199555        59.8529 
  72   0.0000       2.322309        63.1932 
  73   0.0000       2.414892        65.7126 
  74   0.0000       2.452957        66.7484 
  75   0.0000       2.599668        70.7406 
  76   0.0000       2.642042        71.8936 
  77   0.0000       2.888225        78.5926 
  78   0.0000       2.994858        81.4942 
  79   0.0000       3.117330        84.8269 
------------------
MOLECULAR ORBITALS (RHF, ROHF)
------------------
                      0         1         2         3         4         5   
                 -19.15668 -10.27958 -10.21947 -10.21046  -1.06046  -0.81382
                   2.00000   2.00000   2.00000   2.00000   2.00000   2.00000
                  --------  --------  --------  --------  --------  --------
  0C   1s        -0.000022 -0.000058  0.994054 -0.047037  0.003691  0.144819
  0C   2s        -0.000201 -0.000472  0.036572 -0.003141 -0.008479 -0.275520
  0C   1pz       -0.000000 -0.000000  0.000000 -0.000001 -0.000001 -0.000029
  0C   1px       -0.000247 -0.000338  0.000868 -0.001549 -0.006460 -0.098032
  0C   1py        0.000163  0.000143  0.000362 -0.000796 -0.000173 -0.038062
  0C   3s        -0.001972 -0.000107 -0.028468  0.008460 -0.014361 -0.228595
  0C   2pz       -0.000000  0.000000 -0.000001  0.000001 -0.000003 -0.000009
  0C   2px        0.000801  0.001414 -0.002096  0.003510  0.004229 -0.018503
  0C   2py       -0.001616 -0.001297 -0.000928  0.000510 -0.010510  0.005028
  0C   4s         0.003254 -0.017232  0.020571 -0.043275 -0.068482 -0.026874
  0C   3pz        0.000000 -0.000002  0.000002 -0.000003 -0.000005 -0.000006
  0C   3px        0.000813 -0.002116  0.006208 -0.009648 -0.015288 -0.004102
  0C   3py        0.000457 -0.003102  0.003634 -0.003224 -0.004454  0.002897
  0C   1dz2      -0.000083 -0.000187 -0.000632  0.000799  0.000091  0.013036
  0C   1dxz      -0.000000 -0.000000  0.000000 -0.000001 -0.000000 -0.000007
  0C   1dyz      -0.000000  0.000000  0.000000 -0.000000  0.000000 -0.000000
  0C   1dx2y2    -0.000015 -0.000094  0.000373 -0.000700 -0.000399 -0.003838
  0C   1dxy       0.000102 -0.000012  0.000447 -0.001089 -0.000187 -0.003390
  1C   1s         0.000044  0.001910  0.046925  0.994073  0.019492  0.160461
  1C   2s         0.000082 -0.000263  0.000390  0.037779 -0.036198 -0.308826
  1C   1pz        0.000000  0.000000  0.000000 -0.000001  0.000006  0.000055
  1C   1px       -0.000059 -0.000620  0.001589 -0.000566 -0.025817  0.062599
  1C   1py        0.000184  0.000546  0.000788 -0.000984  0.009682  0.067480
  1C   3s        -0.002146  0.002378  0.005108 -0.031859 -0.021757 -0.198639
  1C   2pz        0.000000 -0.000000 -0.000001  0.000002  0.000003  0.000013
  1C   2px       -0.003729  0.000427 -0.003517  0.000101 -0.019838 -0.002814
  1C   2py       -0.001385 -0.001101 -0.001219  0.003726 -0.006862 -0.023208
  1C   4s         0.008962  0.003177  0.019543  0.076942  0.114546  0.109178
  1C   3pz        0.000000 -0.000001  0.000000 -0.000004 -0.000005  0.000007
  1C   3px        0.004064 -0.011272  0.012323 -0.003194 -0.001759  0.011356
  1C   3py       -0.001064 -0.001290 -0.006540 -0.013911 -0.020014 -0.034571
  1C   1dz2       0.000036  0.000634  0.000692 -0.000774  0.003452  0.011874
  1C   1dxz       0.000000  0.000000 -0.000001  0.000000  0.000002 -0.000003
  1C   1dyz       0.000000 -0.000000 -0.000000 -0.000000 -0.000000  0.000001
  1C   1dx2y2    -0.000346 -0.000386 -0.000670  0.000602 -0.003301 -0.000532
  1C   1dxy       0.000062  0.001104 -0.000907  0.000447  0.003245 -0.003815
  2H   1s        -0.000199 -0.000263 -0.000799 -0.000229 -0.002596 -0.074393
  2H   2s        -0.000558 -0.000734  0.003979 -0.000598 -0.003812 -0.005601
  3H   1s         0.000176  0.000032 -0.000956 -0.000159 -0.000200 -0.069356
  3H   2s         0.001110  0.001543  0.004342  0.000567  0.008406 -0.012114
  4H   1s         0.000190 -0.000173 -0.000183 -0.000854 -0.006919 -0.073652
  4H   2s         0.000938  0.000146 -0.000082  0.002975  0.003597  0.005538
  5C   1s         0.000244  0.995320 -0.000105 -0.001728  0.118528  0.052312
  5C   2s         0.000205  0.038484 -0.000340 -0.000664 -0.226456 -0.101107
  5C   1pz        0.000000 -0.000000  0.000000 -0.000000  0.000028 -0.000013
  5C   1px       -0.000332  0.002028  0.000047  0.000496 -0.170130  0.136159
  5C   1py       -0.000255  0.001274  0.000025 -0.000433 -0.077434 -0.011920
  5C   3s         0.007975 -0.024976 -0.001095  0.004278 -0.070817 -0.085362
  5C   2pz       -0.000001 -0.000000  0.000000 -0.000000 -0.000003 -0.000007
  5C   2px        0.004626  0.002095 -0.001703 -0.004298  0.022718  0.047391
  5C   2py        0.005448  0.001348 -0.000760  0.000768  0.026080  0.013106
  5C   4s        -0.016922  0.012323 -0.039993 -0.033322 -0.063443 -0.082194
  5C   3pz       -0.000000  0.000001 -0.000002 -0.000002 -0.000002 -0.000012
  5C   3px        0.000834 -0.001470  0.009998  0.007489 -0.002967  0.030416
  5C   3py       -0.003537  0.005075 -0.005170 -0.004383 -0.010116 -0.001622
  5C   1dz2       0.000315 -0.001154 -0.000055  0.000683  0.015607  0.004176
  5C   1dxz       0.000000 -0.000001  0.000000  0.000000  0.000007 -0.000000
  5C   1dyz       0.000000 -0.000000  0.000000 -0.000000  0.000003 -0.000001
  5C   1dx2y2    -0.000792  0.001108 -0.000114 -0.000470 -0.016234  0.000913
  5C   1dxy      -0.000761  0.000659 -0.000005  0.001021 -0.018481  0.010081
  6H   1s        -0.000126 -0.000657 -0.000287 -0.000319 -0.027681 -0.033491
  6H   2s         0.001880  0.004689  0.000178 -0.000231  0.017716  0.002741
  7O   1s         0.995130 -0.000061 -0.000015 -0.000013  0.194314 -0.038034
  7O   2s         0.030274  0.000599 -0.000189 -0.000206 -0.426324  0.089200
  7O   1pz        0.000000 -0.000000 -0.000000  0.000000 -0.000025  0.000002
  7O   1px       -0.001972  0.000912  0.000032  0.000121  0.154278 -0.000394
  7O   1py       -0.000756  0.000399  0.000014  0.000054  0.063888 -0.014661
  7O   3s        -0.021892 -0.004858  0.001125  0.000678 -0.387340  0.070457
  7O   2pz       -0.000001 -0.000001  0.000000 -0.000000 -0.000008 -0.000001
  7O   2px        0.004389  0.003696 -0.000702 -0.000580  0.047772  0.010360
  7O   2py        0.001084  0.001566 -0.000332 -0.000889  0.016358 -0.000128
  7O   4s         0.008933  0.008208  0.003564  0.003854  0.021186 -0.007449
  7O   3pz        0.000000  0.000001  0.000001  0.000001  0.000001  0.000004
  7O   3px       -0.000742 -0.005647 -0.001465 -0.000931  0.004513 -0.006244
  7O   3py        0.000156 -0.002252  0.000092  0.000583  0.002020 -0.000339
  7O   1dz2      -0.000048  0.001012 -0.000060 -0.000249  0.003620  0.000814
  7O   1dxz       0.000000  0.000000 -0.000000 -0.000000  0.000002  0.000000
  7O   1dyz      -0.000000  0.000000  0.000000 -0.000000  0.000002 -0.000000
  7O   1dx2y2    -0.000096 -0.001034  0.000074 -0.000063 -0.008456 -0.001501
  7O   1dxy       0.000082 -0.001199  0.000048  0.000114 -0.008087  0.000536
                      6         7         8         9        10        11   
                  -0.65610  -0.58276  -0.48835  -0.48447  -0.43012  -0.41085
                   2.00000   2.00000   2.00000   2.00000   2.00000   2.00000
                  --------  --------  --------  --------  --------  --------
  0C   1s         0.132614  0.045457 -0.010542 -0.009002  0.018175  0.000005
  0C   2s        -0.263475 -0.090314  0.021545  0.021433 -0.038951 -0.000010
  0C   1pz       -0.000002  0.000004 -0.000010 -0.000111 -0.000089 -0.094114
  0C   1px        0.082105  0.073095 -0.059685 -0.353746 -0.246124  0.000058
  0C   1py       -0.004280  0.153252 -0.292758  0.047370 -0.016998 -0.000220
  0C   3s        -0.249806 -0.104214  0.055585  0.016593 -0.043197 -0.000042
  0C   2pz        0.000005  0.000002  0.000003 -0.000046 -0.000035 -0.046780
  0C   2px        0.038407  0.013631 -0.010293 -0.139770 -0.084845  0.000019
  0C   2py       -0.000378  0.053384 -0.106822  0.026071 -0.008269 -0.000104
  0C   4s         0.029789  0.024893  0.038735  0.025368  0.004049 -0.000128
  0C   3pz        0.000004  0.000003  0.000002 -0.000006 -0.000006 -0.000852
  0C   3px        0.005824  0.012068 -0.004292 -0.016697 -0.014288 -0.000020
  0C   3py        0.008986  0.004550 -0.006211  0.007281 -0.002369 -0.000033
  0C   1dz2       0.009882  0.004352 -0.002732 -0.003196 -0.002146 -0.000004
  0C   1dxz      -0.000004 -0.000001 -0.000002 -0.000003 -0.000003 -0.006488
  0C   1dyz       0.000002  0.000003 -0.000004 -0.000004 -0.000003 -0.002029
  0C   1dx2y2     0.005326  0.003991 -0.008503 -0.002295 -0.000947 -0.000014
  0C   1dxy       0.004777  0.007987 -0.002851 -0.012559 -0.008912  0.000009
  1C   1s        -0.057943 -0.094066  0.014881  0.028822  0.003585  0.000011
  1C   2s         0.116951  0.187990 -0.027872 -0.060261 -0.009125 -0.000028
  1C   1pz       -0.000001 -0.000055  0.000044 -0.000012  0.000001 -0.171827
  1C   1px        0.219102 -0.013026  0.238945  0.174475  0.191520  0.000022
  1C   1py       -0.022133  0.192611 -0.125288  0.208339  0.130792  0.000170
  1C   3s         0.108813  0.213963 -0.023776 -0.012411  0.021721  0.000010
  1C   2pz       -0.000004 -0.000022  0.000014 -0.000013 -0.000005 -0.086056
  1C   2px        0.049085  0.008133  0.086128  0.025412  0.046123 -0.000010
  1C   2py        0.001211  0.058616 -0.043214  0.041786  0.038555  0.000053
  1C   4s         0.054455 -0.051825 -0.022006 -0.007645 -0.019320  0.000149
  1C   3pz       -0.000002 -0.000002  0.000004  0.000008  0.000004 -0.008581
  1C   3px        0.048273 -0.007223  0.034425  0.020027  0.005139 -0.000034
  1C   3py       -0.007740  0.012288 -0.002191  0.004730  0.012564 -0.000006
  1C   1dz2      -0.003929 -0.005249  0.000526 -0.002102 -0.001914  0.000004
  1C   1dxz      -0.000006 -0.000000 -0.000006 -0.000003 -0.000002 -0.005919
  1C   1dyz      -0.000002 -0.000011  0.000005 -0.000008 -0.000007  0.007096
  1C   1dx2y2    -0.005644 -0.004841  0.002640  0.001278 -0.010036 -0.000018
  1C   1dxy      -0.013035  0.004615 -0.001317 -0.007631 -0.009160  0.000008
  2H   1s        -0.105100 -0.120382  0.176706  0.002748  0.010523  0.000142
  2H   2s        -0.033080 -0.057523  0.106606  0.006139  0.014635  0.000115
  3H   1s        -0.134619 -0.034336 -0.043471  0.199629  0.110840 -0.000108
  3H   2s        -0.038923 -0.020437 -0.025738  0.121659  0.092245 -0.000081
  4H   1s         0.045359  0.171158 -0.068115  0.094628  0.094552  0.000145
  4H   2s         0.009465  0.072622 -0.040462  0.073673  0.076638  0.000110
  5C   1s        -0.113874  0.084738  0.009472 -0.053210  0.010904  0.000013
  5C   2s         0.236304 -0.176185 -0.017125  0.122423 -0.036400 -0.000030
  5C   1pz        0.000032 -0.000012  0.000040 -0.000011  0.000067 -0.367346
  5C   1px       -0.177959  0.011469 -0.148372  0.111660 -0.273835  0.000025
  5C   1py       -0.004984  0.229033  0.298954  0.099959 -0.174067 -0.000075
  5C   3s         0.219780 -0.185889 -0.063246  0.143219 -0.012838 -0.000042
  5C   2pz        0.000009 -0.000005  0.000013 -0.000005  0.000026 -0.176835
  5C   2px       -0.038337  0.031963 -0.048492  0.063498 -0.074713  0.000012
  5C   2py       -0.015507  0.073457  0.089491  0.055038 -0.050603 -0.000020
  5C   4s        -0.089875  0.028190 -0.026143  0.003902  0.036300 -0.000012
  5C   3pz       -0.000003  0.000005 -0.000001 -0.000005  0.000002 -0.027235
  5C   3px        0.006906 -0.000284 -0.013493 -0.000248 -0.013141  0.000004
  5C   3py       -0.024993  0.016294  0.007148 -0.001346 -0.003797 -0.000004
  5C   1dz2      -0.005087  0.003789  0.003426 -0.002170  0.003582  0.000005
  5C   1dxz      -0.000000  0.000000 -0.000000 -0.000001  0.000004 -0.017358
  5C   1dyz       0.000001 -0.000001  0.000001 -0.000001  0.000003 -0.012827
  5C   1dx2y2    -0.009828  0.006656  0.002090 -0.005995 -0.020693 -0.000005
  5C   1dxy      -0.009275 -0.003910 -0.000034  0.003796 -0.013508 -0.000003
  6H   1s         0.097704 -0.178122 -0.148107 -0.003016  0.115560  0.000029
  6H   2s         0.026292 -0.083873 -0.093560  0.006026  0.097337  0.000037
  7O   1s         0.064951 -0.036742 -0.010609  0.066632 -0.057617  0.000004
  7O   2s        -0.152436  0.087430  0.022036 -0.150688  0.127115 -0.000009
  7O   1pz        0.000010 -0.000010  0.000019  0.000049 -0.000046 -0.445947
  7O   1px       -0.061970  0.027058 -0.045829 -0.276856  0.412332 -0.000060
  7O   1py       -0.001053  0.117000  0.215057 -0.061258  0.147041 -0.000087
  7O   3s        -0.177186  0.100409  0.052252 -0.278361  0.253074 -0.000025
  7O   2pz        0.000005 -0.000006  0.000013  0.000018 -0.000017 -0.257672
  7O   2px       -0.031559  0.015902 -0.037997 -0.104144  0.172636 -0.000030
  7O   2py       -0.000295  0.057882  0.107370 -0.013494  0.059671 -0.000046
  7O   4s        -0.013493  0.000622  0.022619 -0.075379  0.074622 -0.000008
  7O   3pz       -0.000001 -0.000003  0.000000  0.000002 -0.000004 -0.023828
  7O   3px        0.008080 -0.000161 -0.001846 -0.007828  0.025223 -0.000003
  7O   3py        0.005019 -0.001445  0.005269 -0.000402  0.012231 -0.000002
  7O   1dz2      -0.003569  0.002549  0.000270 -0.007028  0.007488 -0.000009
  7O   1dxz      -0.000002  0.000001 -0.000003 -0.000004  0.000002  0.028947
  7O   1dyz      -0.000000  0.000002  0.000002 -0.000001  0.000000  0.011535
  7O   1dx2y2     0.004410  0.003636  0.012055  0.008892 -0.010910  0.000001
  7O   1dxy       0.001243 -0.009625 -0.012657  0.003946 -0.007388  0.000006
                     12        13        14        15        16        17   
                  -0.40206  -0.30345  -0.26775  -0.07404   0.00958   0.02222
                   2.00000   2.00000   2.00000   0.00000   0.00000   0.00000
                  --------  --------  --------  --------  --------  --------
  0C   1s         0.010470 -0.000019  0.007138 -0.000009  0.060974  0.000034
  0C   2s        -0.021378  0.000041 -0.011742  0.000024 -0.138182 -0.000064
  0C   1pz        0.000075 -0.378227 -0.000080 -0.366954 -0.000061  0.093898
  0C   1px        0.059577  0.000156 -0.066384  0.000100  0.119040  0.000198
  0C   1py       -0.316426  0.000012 -0.017954 -0.000012  0.049611 -0.000110
  0C   3s        -0.034963  0.000065 -0.086021  0.000028 -0.409955 -0.000371
  0C   2pz        0.000037 -0.242460 -0.000070 -0.380482 -0.000078  0.170164
  0C   2px        0.028703  0.000098 -0.080409  0.000060  0.203180  0.000198
  0C   2py       -0.137177 -0.000010 -0.019905  0.000031  0.080669 -0.000046
  0C   4s         0.011876  0.000123 -0.327785 -0.000572 -2.005954 -0.000348
  0C   3pz        0.000001 -0.050760 -0.000049 -0.308530 -0.000776  1.031127
  0C   3px        0.015956  0.000046 -0.082494 -0.000061 -1.185304 -0.001242
  0C   3py       -0.033023  0.000008 -0.018554 -0.000046 -0.700820  0.000310
  0C   1dz2      -0.000503 -0.000009  0.000103  0.000006  0.006923 -0.000011
  0C   1dxz      -0.000002 -0.014593 -0.000001  0.012980  0.000009 -0.017668
  0C   1dyz       0.000000 -0.006583 -0.000002  0.003617  0.000012 -0.016626
  0C   1dx2y2    -0.024070  0.000005  0.006507 -0.000006  0.005998  0.000006
  0C   1dxy       0.013889  0.000003 -0.005177  0.000000  0.002883  0.000002
  1C   1s        -0.014557  0.000035 -0.038648 -0.000016  0.006172  0.000075
  1C   2s         0.025389 -0.000076  0.078272  0.000034 -0.018569 -0.000163
  1C   1pz        0.000071 -0.367127 -0.000007  0.216155  0.000194 -0.328960
  1C   1px       -0.002999  0.000000  0.192382 -0.000025 -0.023009 -0.000035
  1C   1py        0.287178 -0.000049 -0.109686  0.000034 -0.080183 -0.000246
  1C   3s         0.070972 -0.000122  0.277947  0.000087 -0.122660 -0.000605
  1C   2pz        0.000034 -0.227427 -0.000018  0.244925  0.000237 -0.422257
  1C   2px       -0.014838  0.000014  0.073566 -0.000028  0.055224  0.000065
  1C   2py        0.108308  0.000010 -0.129264 -0.000032 -0.007585 -0.000395
  1C   4s        -0.026705 -0.000147  0.475824  0.000891 -0.932845 -0.007288
  1C   3pz        0.000005 -0.039792 -0.000000  0.181018  0.000606 -1.328193
  1C   3px       -0.021816  0.000034 -0.059666 -0.000104 -1.607968 -0.001639
  1C   3py        0.037862  0.000027 -0.111543 -0.000157  0.952313  0.002037
  1C   1dz2      -0.003045  0.000012  0.000522  0.000005  0.007325 -0.000006
  1C   1dxz       0.000001  0.015384  0.000001  0.029524 -0.000005  0.004968
  1C   1dyz      -0.000016  0.009095  0.000004 -0.001687  0.000014 -0.017118
  1C   1dx2y2    -0.024015 -0.000004  0.003443 -0.000002 -0.000348 -0.000013
  1C   1dxy       0.012299 -0.000000 -0.005423 -0.000000 -0.004453 -0.000005
  2H   1s         0.211757 -0.000012 -0.016539 -0.000003 -0.005596  0.000015
  2H   2s         0.178415 -0.000020 -0.031304  0.000030  0.037934  0.000176
  3H   1s        -0.166473 -0.000017  0.041551 -0.000021  0.009098  0.000022
  3H   2s        -0.132618 -0.000012  0.041250 -0.000059  0.063762  0.000095
  4H   1s         0.216446  0.000010 -0.036282 -0.000034 -0.022529  0.000138
  4H   2s         0.171979 -0.000032 -0.037822  0.000002 -0.113198  0.000456
  5C   1s         0.025500 -0.000001 -0.000422  0.000018  0.018146 -0.000036
  5C   2s        -0.056214  0.000001  0.012635 -0.000047 -0.055957  0.000085
  5C   1pz        0.000209  0.037290  0.000011  0.328706 -0.000205  0.288366
  5C   1px        0.165199  0.000003 -0.057982  0.000112  0.009268 -0.000027
  5C   1py       -0.115753  0.000004  0.128385 -0.000026  0.078794 -0.000102
  5C   3s        -0.068258 -0.000006 -0.019985 -0.000086 -0.040459  0.000116
  5C   2pz        0.000106  0.012980 -0.000007  0.317453 -0.000274  0.404951
  5C   2px        0.066400 -0.000020  0.060581  0.000096  0.031435 -0.000092
  5C   2py       -0.034375 -0.000017  0.022841  0.000002  0.045896 -0.000224
  5C   4s         0.033331  0.000003 -0.165735 -0.000236  4.654826  0.008184
  5C   3pz        0.000022  0.013635 -0.000023  0.156080 -0.000357  1.027335
  5C   3px        0.005284 -0.000008  0.067295  0.000074 -1.145829 -0.002903
  5C   3py       -0.001447 -0.000000  0.016404 -0.000054  0.236818  0.001502
  5C   1dz2      -0.001841 -0.000007  0.001782  0.000009  0.004111  0.000001
  5C   1dxz       0.000013  0.027361 -0.000007 -0.030529  0.000004 -0.004166
  5C   1dyz       0.000008  0.000620  0.000006 -0.002504  0.000014 -0.024545
  5C   1dx2y2    -0.000396  0.000003  0.038842 -0.000005  0.009671  0.000009
  5C   1dxy      -0.002763  0.000003 -0.034644  0.000003  0.002134  0.000003
  6H   1s         0.037072  0.000002 -0.177191  0.000009 -0.020355 -0.000041
  6H   2s         0.047968 -0.000008 -0.243605  0.000036 -0.123038 -0.000276
  7O   1s         0.008704 -0.000001 -0.001030 -0.000002 -0.000154 -0.000011
  7O   2s        -0.018393  0.000000  0.006105  0.000007 -0.005409  0.000013
  7O   1pz        0.000304  0.274368 -0.000042 -0.340292  0.000153 -0.209130
  7O   1px        0.000992  0.000024  0.226319 -0.000090 -0.015506 -0.000027
  7O   1py       -0.172455  0.000043 -0.532408  0.000026 -0.034771 -0.000040
  7O   3s        -0.049150  0.000015 -0.023778 -0.000004  0.030209  0.000201
  7O   2pz        0.000175  0.180424 -0.000031 -0.275161  0.000135 -0.180718
  7O   2px        0.014252  0.000012  0.159227 -0.000064 -0.011242 -0.000133
  7O   2py       -0.091878  0.000026 -0.345433  0.000019 -0.029617  0.000007
  7O   4s        -0.016676  0.000009 -0.021465 -0.000004 -0.374833 -0.000045
  7O   3pz        0.000016  0.042186  0.000002 -0.179440  0.000158 -0.326511
  7O   3px       -0.003405  0.000002  0.029682 -0.000024  0.192750  0.000327
  7O   3py       -0.011258 -0.000001 -0.083524  0.000032  0.069992 -0.000275
  7O   1dz2      -0.001439  0.000004  0.000445  0.000000  0.001567 -0.000001
  7O   1dxz      -0.000019 -0.012279  0.000002  0.000937  0.000001 -0.000978
  7O   1dyz      -0.000009 -0.006009 -0.000002  0.001842  0.000004 -0.005946
  7O   1dx2y2    -0.007105 -0.000000 -0.013538 -0.000000  0.000647  0.000001
  7O   1dxy       0.008180 -0.000002  0.013477  0.000001 -0.001611  0.000005
                     18        19        20        21        22        23   
                   0.02358   0.03586   0.06449   0.06460   0.07056   0.09366
                   0.00000   0.00000   0.00000   0.00000   0.00000   0.00000
                  --------  --------  --------  --------  --------  --------
  0C   1s         0.002879  0.026543 -0.010396 -0.000475 -0.000012 -0.025077
  0C   2s         0.006646 -0.056794  0.021769  0.000969  0.005375  0.037307
  0C   1pz        0.000098 -0.000029  0.009858 -0.214517 -0.000138  0.000044
  0C   1px       -0.062725  0.033489  0.031350  0.001390  0.083992  0.041627
  0C   1py        0.139029  0.006685 -0.057936 -0.002571 -0.173712  0.016707
  0C   3s        -0.077375 -0.228109  0.034948  0.001776  0.016867  0.299316
  0C   2pz        0.000182 -0.000076  0.015194 -0.331842 -0.000210  0.000039
  0C   2px       -0.121177 -0.002265 -0.181621 -0.008299  0.160123  0.119001
  0C   2py        0.161995  0.024022 -0.140679 -0.006466 -0.158797 -0.042740
  0C   4s        -3.667921 -8.538112 -7.917814 -0.360213  2.713120 -0.901689
  0C   3pz        0.001042 -0.001166 -0.008284  0.163972  0.000141 -0.001103
  0C   3px       -0.677994 -2.708278 -2.794999 -0.126720 -0.431067 -0.918039
  0C   3py       -0.929729 -0.989782 -0.565997 -0.026719  2.369826 -1.196868
  0C   1dz2       0.001485 -0.002845  0.004239  0.000198 -0.002221 -0.016639
  0C   1dxz      -0.000024  0.000008  0.000010 -0.000269  0.000003  0.000022
  0C   1dyz      -0.000019  0.000008 -0.000165  0.003606  0.000001  0.000005
  0C   1dx2y2     0.001232  0.001676  0.002805  0.000128 -0.001631  0.012769
  0C   1dxy       0.004116  0.010090  0.014420  0.000663 -0.001931  0.002156
  1C   1s        -0.036655 -0.029797 -0.011390 -0.000525 -0.018906 -0.012962
  1C   2s         0.082235  0.075940  0.021207  0.000967  0.046345  0.013484
  1C   1pz       -0.000443  0.000095 -0.001034  0.021647  0.000042  0.000078
  1C   1px        0.020591 -0.030308 -0.053041 -0.002450  0.051113 -0.012544
  1C   1py        0.110700  0.076198  0.049279  0.002355  0.016305 -0.135765
  1C   3s         0.348376  0.197190  0.291763  0.013379  0.114554  0.206372
  1C   2pz       -0.000603  0.000142 -0.001821  0.036814  0.000089  0.000226
  1C   2px        0.004908 -0.084429 -0.057223 -0.002704  0.139742 -0.000324
  1C   2py        0.128045  0.090786 -0.107472 -0.004511 -0.026718 -0.150956
  1C   4s         8.498656  7.913600 13.571809  0.612226  4.390045  3.549032
  1C   3pz       -0.002017 -0.000115 -0.042729  0.921138  0.000913 -0.000088
  1C   3px        0.130665 -2.140643 -0.344416 -0.017961  3.838537  1.272224
  1C   3py       -1.580623 -1.515756 -3.303939 -0.149809 -1.687146  1.578040
  1C   1dz2      -0.000831 -0.006920  0.004119  0.000206 -0.003952 -0.017154
  1C   1dxz       0.000006 -0.000000 -0.000141  0.003089 -0.000001 -0.000004
  1C   1dyz      -0.000026 -0.000002 -0.000835  0.018190  0.000012  0.000014
  1C   1dx2y2     0.010539 -0.007593 -0.000042 -0.000005 -0.008160  0.001492
  1C   1dxy       0.000468 -0.004934  0.008377  0.000377  0.008406  0.006317
  2H   1s         0.004588  0.013606 -0.023332 -0.001072 -0.001600 -0.015592
  2H   2s         0.023394  0.173455 -0.183651 -0.008645  0.097554  0.101432
  3H   1s        -0.008201 -0.010384 -0.041860 -0.001939  0.021016  0.027099
  3H   2s        -0.023886  0.034617 -0.223006 -0.010348  0.085340  0.345496
  4H   1s        -0.042366  0.021445 -0.007203 -0.000413  0.019266  0.038809
  4H   2s        -0.205568  0.056297 -0.039416 -0.002267  0.112168  0.244385
  5C   1s         0.026982 -0.014476 -0.016002 -0.000750  0.031748 -0.006940
  5C   2s        -0.054032  0.068590  0.015531  0.000743 -0.065588  0.002312
  5C   1pz        0.000323 -0.000028  0.010621 -0.231809 -0.000202 -0.000263
  5C   1px        0.016445 -0.031241  0.058926  0.002681  0.031554 -0.021468
  5C   1py        0.132855 -0.100578 -0.101994 -0.004783  0.070278  0.017896
  5C   3s        -0.199320 -0.119263  0.300335  0.014020 -0.367503  0.055726
  5C   2pz        0.000454 -0.000044  0.015369 -0.336631 -0.000325 -0.000405
  5C   2px        0.134496 -0.235679  0.375537  0.016989  0.043806 -0.145852
  5C   2py        0.169107 -0.142969 -0.056711 -0.002711  0.037908 -0.005162
  5C   4s        -4.834309 -0.882837 -4.340244 -0.191577 -7.572855 -3.283114
  5C   3pz        0.001055 -0.000401 -0.002183  0.037200 -0.000524  0.001388
  5C   3px        1.632768 -0.715903  2.482180  0.112103  1.235714  0.819614
  5C   3py       -1.288972  0.255118  0.395307  0.020717 -2.629772 -1.700756
  5C   1dz2       0.000206 -0.007205  0.006837  0.000317 -0.005423 -0.014080
  5C   1dxz      -0.000004 -0.000001 -0.000046  0.001076 -0.000000 -0.000006
  5C   1dyz      -0.000030  0.000006 -0.000225  0.004856  0.000005  0.000002
  5C   1dx2y2    -0.003699 -0.004565 -0.009166 -0.000418 -0.004425 -0.000116
  5C   1dxy      -0.003917  0.002783 -0.001734 -0.000076 -0.003827 -0.006265
  6H   1s         0.024287  0.025899 -0.012683 -0.000595  0.036018  0.014192
  6H   2s         0.153274  0.051980 -0.021371 -0.001161  0.170084  0.239868
  7O   1s         0.002970 -0.026330  0.032497  0.001486 -0.006354  0.001937
  7O   2s         0.001445  0.077493 -0.090530 -0.004140  0.018995 -0.010325
  7O   1pz       -0.000244  0.000040 -0.002248  0.048862  0.000050 -0.000012
  7O   1px        0.000623  0.017699 -0.022694 -0.001010 -0.027307 -0.023608
  7O   1py        0.004031  0.042209  0.051420  0.002346  0.045347 -0.011594
  7O   3s        -0.096120  0.171075 -0.248478 -0.011326  0.028419  0.034036
  7O   2pz       -0.000224  0.000027 -0.003573  0.077241  0.000074  0.000074
  7O   2px        0.047979 -0.074118  0.078662  0.003644 -0.052890 -0.062787
  7O   2py       -0.035741  0.001162  0.100502  0.004642 -0.005974 -0.052238
  7O   4s         0.076095  1.140949 -1.358410 -0.062422  0.492160  0.487592
  7O   3pz       -0.000344  0.000230 -0.002635  0.058451  0.000116 -0.000153
  7O   3px       -0.130688 -0.121642  0.097639  0.004413 -0.005981 -0.075829
  7O   3py        0.268682 -0.051619  0.067853  0.002751  0.255080  0.147828
  7O   1dz2      -0.000080 -0.003882  0.004627  0.000214 -0.003852 -0.007490
  7O   1dxz      -0.000001 -0.000002 -0.000246  0.005415  0.000002  0.000008
  7O   1dyz      -0.000006  0.000000 -0.000242  0.005287  0.000005  0.000005
  7O   1dx2y2     0.002060  0.003183 -0.003851 -0.000179  0.003444 -0.000192
  7O   1dxy      -0.004869  0.006178 -0.002143 -0.000093 -0.003661 -0.000227
                     24        25        26        27        28        29   
                   0.09585   0.11772   0.13127   0.13809   0.16268   0.19285
                   0.00000   0.00000   0.00000   0.00000   0.00000   0.00000
                  --------  --------  --------  --------  --------  --------
  0C   1s        -0.000037 -0.019879  0.000004 -0.040404  0.034071  0.043794
  0C   2s         0.000046  0.023775 -0.000007  0.063338 -0.045375 -0.062749
  0C   1pz       -0.123101 -0.000062 -0.218263  0.000145  0.000065 -0.000021
  0C   1px        0.000073  0.025288 -0.000057 -0.100675  0.043419  0.121521
  0C   1py        0.000010 -0.047901 -0.000027 -0.053750  0.014729 -0.108589
  0C   3s         0.000553  0.358049 -0.000051  0.462831 -0.419648 -0.813516
  0C   2pz       -0.209894 -0.000084 -0.417330  0.000278  0.000188 -0.000001
  0C   2px        0.000170 -0.036402 -0.000136 -0.527176  0.150781  0.613166
  0C   2py        0.000008 -0.153015 -0.000171 -0.260494  0.012735 -0.391765
  0C   4s         0.003289 16.036197 -0.020344-18.646260 31.767406-15.454214
  0C   3pz        0.841236  0.002551  1.964258 -0.002689  0.001743 -0.001616
  0C   3px       -0.000355  1.766769 -0.004220 -4.499040  7.310633 -2.620777
  0C   3py       -0.000319  3.096613 -0.003118 -2.225513  4.025991 -2.318706
  0C   1dz2      -0.000017  0.004997  0.000017  0.014496  0.015227 -0.009822
  0C   1dxz      -0.009204  0.000008  0.014737 -0.000014 -0.000006  0.000019
  0C   1dyz       0.001750 -0.000006  0.004625 -0.000007 -0.000008 -0.000006
  0C   1dx2y2     0.000013  0.019240 -0.000003  0.003857  0.005044  0.020657
  0C   1dxy       0.000003 -0.007840  0.000000  0.002755 -0.000712 -0.029965
  1C   1s        -0.000016 -0.007625 -0.000000  0.032862 -0.001129  0.054994
  1C   2s         0.000014  0.003848  0.000031 -0.050202  0.009633 -0.047000
  1C   1pz       -0.029494  0.000145  0.332551 -0.000254 -0.000093  0.000067
  1C   1px        0.000013  0.039041 -0.000009  0.009497  0.036488 -0.029450
  1C   1py       -0.000100 -0.055242 -0.000056 -0.065976 -0.029839 -0.182144
  1C   3s         0.000247  0.160037 -0.000072 -0.135833 -0.079698 -1.304825
  1C   2pz       -0.042137  0.000217  0.582618 -0.000685 -0.000135  0.000236
  1C   2px        0.000120  0.193662 -0.000127 -0.096093  0.214000 -0.252683
  1C   2py       -0.000061 -0.130278  0.000008 -0.188263 -0.084912 -0.374341
  1C   4s        -0.000682 -7.364213  0.038969 37.222454 -7.393753 16.288104
  1C   3pz        0.778078 -0.000639 -2.948740 -0.000095  0.002211 -0.000015
  1C   3px        0.002764 10.410668 -0.002319 -0.383448 13.882229 -4.682914
  1C   3py        0.001902  0.217826 -0.004915 -4.928505 -0.289466 -3.057265
  1C   1dz2      -0.000015  0.005440  0.000016  0.012156  0.000218 -0.003059
  1C   1dxz       0.009870  0.000001  0.001629 -0.000006 -0.000002 -0.000003
  1C   1dyz       0.002838 -0.000001  0.004171 -0.000001 -0.000005 -0.000007
  1C   1dx2y2     0.000003 -0.004462 -0.000003  0.002752 -0.005816 -0.040080
  1C   1dxy       0.000005  0.023956 -0.000014 -0.001494 -0.000191  0.006504
  2H   1s        -0.000021 -0.086876 -0.000031 -0.076644 -0.024693 -0.049787
  2H   2s         0.000076 -0.533535 -0.000331 -0.718450 -0.388333 -0.225359
  3H   1s         0.000007  0.043091 -0.000053 -0.078389  0.001685  0.163027
  3H   2s         0.000173  0.034226 -0.000259 -0.614615 -0.183123  1.694415
  4H   1s         0.000017  0.023590 -0.000035  0.012249  0.015952  0.172707
  4H   2s         0.000159  0.067652 -0.000509 -0.272062  0.138865  1.390470
  5C   1s        -0.000008  0.048777 -0.000011 -0.002271 -0.007541  0.006743
  5C   2s         0.000001 -0.094667  0.000028  0.038871  0.018711 -0.047216
  5C   1pz        0.186621 -0.000103 -0.199961  0.000133  0.000082 -0.000049
  5C   1px        0.000020  0.077444 -0.000037 -0.030633  0.010105 -0.010201
  5C   1py        0.000021 -0.017582 -0.000071 -0.051783 -0.048104 -0.092469
  5C   3s         0.000066 -0.624503  0.000174 -0.193913  0.075832  0.108001
  5C   2pz        0.239083 -0.000156 -0.278653  0.000258  0.000113  0.000031
  5C   2px       -0.000091  0.206797 -0.000083  0.049956  0.007039 -0.367192
  5C   2py       -0.000027 -0.088812 -0.000174 -0.235210 -0.085156 -0.143048
  5C   4s        -0.003066 -8.960501 -0.018658-18.697565-24.752303 -1.089391
  5C   3pz       -1.937936 -0.000137  1.173383 -0.001349 -0.001158 -0.000430
  5C   3px        0.000539 -1.158609  0.005914  4.250120  5.858666  1.489227
  5C   3py       -0.001761 -2.249888 -0.003158 -3.678784 -4.131686  0.417236
  5C   1dz2      -0.000016 -0.000024 -0.000005  0.004077 -0.020858 -0.001159
  5C   1dxz       0.001335 -0.000004 -0.005275  0.000007 -0.000007 -0.000005
  5C   1dyz       0.007242  0.000008  0.010012 -0.000012 -0.000003 -0.000001
  5C   1dx2y2    -0.000004  0.005119  0.000002 -0.003004  0.003280  0.025923
  5C   1dxy      -0.000008 -0.002248  0.000008  0.001801  0.006669  0.022276
  6H   1s         0.000026  0.027259 -0.000012 -0.010329  0.021267 -0.081321
  6H   2s         0.000247  0.056217 -0.000062 -0.271192  0.406143 -0.478359
  7O   1s         0.000006 -0.010603 -0.000006 -0.012584 -0.007357 -0.017386
  7O   2s        -0.000025  0.031428  0.000027  0.050851  0.025964  0.029032
  7O   1pz        0.013608  0.000068  0.117699 -0.000043 -0.000075  0.000103
  7O   1px       -0.000026  0.028704 -0.000035  0.025210 -0.053876 -0.097269
  7O   1py        0.000000 -0.086437  0.000096  0.079335 -0.013079  0.004214
  7O   3s         0.000031  0.047043  0.000003 -0.014792  0.048824  0.296907
  7O   2pz       -0.058257  0.000087  0.140208 -0.000077 -0.000071  0.000136
  7O   2px       -0.000074 -0.040486  0.000002  0.025726 -0.050291 -0.117512
  7O   2py       -0.000030 -0.039653  0.000067  0.074508 -0.019560 -0.053436
  7O   4s         0.000275  0.480181  0.000762  1.403125  0.836288 -0.276027
  7O   3pz        0.320482 -0.000051 -0.023256  0.000095 -0.000055 -0.000221
  7O   3px        0.000005  0.420447 -0.000353 -0.479677 -0.202980 -0.144991
  7O   3py        0.000115 -0.200990  0.000197  0.061631  0.056598  0.231573
  7O   1dz2      -0.000006 -0.001022 -0.000004  0.001074 -0.010703  0.003650
  7O   1dxz      -0.009184  0.000001  0.005737 -0.000003 -0.000004 -0.000001
  7O   1dyz      -0.000809  0.000002  0.000380 -0.000002  0.000002 -0.000002
[...]
  0-1A  -> 44-1A   11.656830   94018.7   106.4   0.001249043   0.00080   0.00013   0.00018  -0.02833
  0-1A  -> 45-1A   11.663137   94069.6   106.3   0.010115900   0.00650   0.06141   0.05227   0.00016
  0-1A  -> 46-1A   11.722617   94549.3   105.8   0.058387542   0.03773   0.00008   0.00004  -0.19424
  0-1A  -> 47-1A   11.807018   95230.0   105.0   0.073967504   0.04814  -0.21434  -0.04691  -0.00004
  0-1A  -> 48-1A   11.828094   95400.0   104.8   0.001517364   0.00099  -0.03034   0.00831   0.00008
  0-1A  -> 49-1A   12.034732   97066.7   103.0   0.091079645   0.06042   0.24562  -0.00953  -0.00028

------------------------------------------------------------------------------------------
                     CD SPECTRUM VIA TRANSITION ELECTRIC DIPOLE MOMENTS    
------------------------------------------------------------------------------------------
     Transition      Energy     Energy  Wavelength    R        MX        MY        MZ   
                      (eV)      (cm-1)    (nm)   (1e40*cgs)   (au)      (au)      (au)  
------------------------------------------------------------------------------------------
  0-1A  ->  1-1A    3.697010   29818.4   335.4   -0.02515   0.37897   0.07950  -0.00006
  0-1A  ->  2-1A    6.600354   53235.5   187.8    1.49454  -0.00249  -0.00128   0.00050
  0-1A  ->  3-1A    6.611315   53323.9   187.5   -1.66212  -0.41573  -0.21910  -0.00001
  0-1A  ->  4-1A    6.948842   56046.2   178.4    0.23602  -0.00046  -0.00013   0.06743
  0-1A  ->  5-1A    7.103677   57295.0   174.5    0.05082   0.00011   0.00006  -0.02413
  0-1A  ->  6-1A    7.341279   59211.4   168.9   -0.02388  -0.00002  -0.00007   0.34681
  0-1A  ->  7-1A    7.502322   60510.3   165.3   -0.08482  -0.42940  -0.02634  -0.00014
  0-1A  ->  8-1A    7.533146   60758.9   164.6    0.01110  -0.05403   0.24449  -0.00006
  0-1A  ->  9-1A    7.887987   63620.9   157.2   -0.00014   0.00575   0.00356   0.00001
  0-1A  -> 10-1A    8.064487   65044.5   153.7   -0.02548  -0.04585  -0.03197   0.00036
  0-1A  -> 11-1A    8.105684   65376.8   153.0    0.00281  -0.00003   0.00009  -0.22893
  0-1A  -> 12-1A    8.195184   66098.6   151.3    0.00198  -0.12280   0.07284   0.00014
  0-1A  -> 13-1A    8.317963   67088.9   149.1    0.11224   0.00011   0.00033  -0.04639
  0-1A  -> 14-1A    8.352855   67370.3   148.4   -0.10704   0.04047   0.22327   0.00014
  0-1A  -> 15-1A    8.458937   68225.9   146.6    0.02518  -0.00005   0.00002  -0.10102
  0-1A  -> 16-1A    8.936603   72078.6   138.7    0.00310   0.00011   0.00008   0.14719
  0-1A  -> 17-1A    9.003446   72617.7   137.7   -0.01182   0.00548  -0.10197   0.00016
  0-1A  -> 18-1A    9.089436   73311.3   136.4   -0.14637   0.00018   0.00142   0.01443
  0-1A  -> 19-1A    9.100772   73402.7   136.2    0.14500  -0.03074  -0.18093   0.00006
  0-1A  -> 20-1A    9.245066   74566.5   134.1   -0.01224   0.00543   0.03767  -0.00026
  0-1A  -> 21-1A    9.311556   75102.8   133.2   -0.05167  -0.00001  -0.00016  -0.16119
  0-1A  -> 22-1A    9.649011   77824.5   128.5    0.03083   0.44786  -0.51916   0.00011
  0-1A  -> 23-1A    9.658003   77897.1   128.4    0.02146  -0.00022   0.00028   0.01164
  0-1A  -> 24-1A    9.739493   78554.3   127.3    0.01572   0.08961   0.46528   0.00004
  0-1A  -> 25-1A    9.832094   79301.2   126.1    0.00543   0.00635  -0.63068  -0.00011
  0-1A  -> 26-1A    9.923751   80040.5   124.9    0.01228   0.20049   0.01360   0.00006
  0-1A  -> 27-1A   10.026109   80866.0   123.7    0.00418   0.00004  -0.00010  -0.09166
  0-1A  -> 28-1A   10.204269   82303.0   121.5   -0.00867   0.00010   0.00003  -0.05193
  0-1A  -> 29-1A   10.255632   82717.3   120.9    0.11614  -0.00059  -0.00020  -0.42512
  0-1A  -> 30-1A   10.363359   83586.1   119.6   -0.07985  -0.39420  -0.13370   0.00068
  0-1A  -> 31-1A   10.473075   84471.1   118.4   -0.00379  -0.03944  -0.10246   0.00004
  0-1A  -> 32-1A   10.652455   85917.9   116.4    0.03827  -0.00379   0.04805  -0.00014
  0-1A  -> 33-1A   10.683173   86165.6   116.1   -0.07119  -0.00004   0.00009   0.17133
  0-1A  -> 34-1A   10.818556   87257.5   114.6   -0.00231  -0.00003  -0.00002  -0.01199
  0-1A  -> 35-1A   10.915075   88036.0   113.6    0.00261  -0.05922  -0.00095  -0.00010
  0-1A  -> 36-1A   11.072988   89309.7   112.0   -0.02263  -0.14804   0.12708   0.00017
  0-1A  -> 37-1A   11.096275   89497.5   111.7   -0.05733  -0.00046   0.00039  -0.11038
  0-1A  -> 38-1A   11.116767   89662.8   111.5    0.11070   0.21301  -0.39370  -0.00054
  0-1A  -> 39-1A   11.202451   90353.9   110.7    0.05967   0.00058  -0.00063   0.08332
  0-1A  -> 40-1A   11.231175   90585.5   110.4   -0.12151   0.00027  -0.00075   0.24994
  0-1A  -> 41-1A   11.259815   90816.5   110.1    0.02523   0.02557   0.13396   0.00012
  0-1A  -> 42-1A   11.450978   92358.4   108.3   -0.00126   0.00006   0.00007  -0.00549
  0-1A  -> 43-1A   11.506323   92804.8   107.8   -0.00339   0.00001  -0.00002   0.02954
  0-1A  -> 44-1A   11.656830   94018.7   106.4   -0.06321  -0.18112  -0.12095  -0.00081
  0-1A  -> 45-1A   11.663137   94069.6   106.3    0.06834   0.00039   0.00035  -0.17772
  0-1A  -> 46-1A   11.722617   94549.3   105.8    0.02990  -0.01772  -0.09881  -0.00019
  0-1A  -> 47-1A   11.807018   95230.0   105.0   -0.00697   0.00001  -0.00011   0.16368
  0-1A  -> 48-1A   11.828094   95400.0   104.8   -0.05405   0.00009   0.00003  -0.46298
  0-1A  -> 49-1A   12.034732   97066.7   103.0   -0.00419   0.00003   0.00031   0.03806

------------------------------------------------------------------------------------------
                     CD SPECTRUM VIA TRANSITION VELOCITY DIPOLE MOMENTS    
------------------------------------------------------------------------------------------
     Transition      Energy     Energy  Wavelength    R        MX        MY        MZ   
                      (eV)      (cm-1)    (nm)   (1e40*cgs)   (au)      (au)      (au)  
------------------------------------------------------------------------------------------
  0-1A  ->  1-1A    3.697010   29818.4   335.4    0.00962   0.37897   0.07950  -0.00006
  0-1A  ->  2-1A    6.600354   53235.5   187.8    0.32843  -0.00249  -0.00128   0.00050
  0-1A  ->  3-1A    6.611315   53323.9   187.5   -0.36351  -0.41573  -0.21910  -0.00001
  0-1A  ->  4-1A    6.948842   56046.2   178.4    0.06387  -0.00046  -0.00013   0.06743
  0-1A  ->  5-1A    7.103677   57295.0   174.5    0.02404   0.00011   0.00006  -0.02413
  0-1A  ->  6-1A    7.341279   59211.4   168.9   -0.01975  -0.00002  -0.00007   0.34681
  0-1A  ->  7-1A    7.502322   60510.3   165.3   -0.02763  -0.42940  -0.02634  -0.00014
  0-1A  ->  8-1A    7.533146   60758.9   164.6    0.00558  -0.05403   0.24449  -0.00006
  0-1A  ->  9-1A    7.887987   63620.9   157.2    0.00039   0.00575   0.00356   0.00001
  0-1A  -> 10-1A    8.064487   65044.5   153.7   -0.02373  -0.04585  -0.03197   0.00036
  0-1A  -> 11-1A    8.105684   65376.8   153.0    0.01474  -0.00003   0.00009  -0.22893
  0-1A  -> 12-1A    8.195184   66098.6   151.3    0.00430  -0.12280   0.07284   0.00014
  0-1A  -> 13-1A    8.317963   67088.9   149.1    0.06525   0.00011   0.00033  -0.04639
  0-1A  -> 14-1A    8.352855   67370.3   148.4   -0.05289   0.04047   0.22327   0.00014
  0-1A  -> 15-1A    8.458937   68225.9   146.6    0.01191  -0.00005   0.00002  -0.10102
  0-1A  -> 16-1A    8.936603   72078.6   138.7    0.00353   0.00011   0.00008   0.14719
  0-1A  -> 17-1A    9.003446   72617.7   137.7   -0.00922   0.00548  -0.10197   0.00016
  0-1A  -> 18-1A    9.089436   73311.3   136.4   -0.02638   0.00018   0.00142   0.01443
  0-1A  -> 19-1A    9.100772   73402.7   136.2    0.01304  -0.03074  -0.18093   0.00006
  0-1A  -> 20-1A    9.245066   74566.5   134.1   -0.00965   0.00543   0.03767  -0.00026
  0-1A  -> 21-1A    9.311556   75102.8   133.2   -0.02360  -0.00001  -0.00016  -0.16119
  0-1A  -> 22-1A    9.649011   77824.5   128.5    0.00072   0.44786  -0.51916   0.00011
  0-1A  -> 23-1A    9.658003   77897.1   128.4    0.03256  -0.00022   0.00028   0.01164
  0-1A  -> 24-1A    9.739493   78554.3   127.3    0.00697   0.08961   0.46528   0.00004
  0-1A  -> 25-1A    9.832094   79301.2   126.1    0.01270   0.00635  -0.63068  -0.00011
  0-1A  -> 26-1A    9.923751   80040.5   124.9   -0.00802   0.20049   0.01360   0.00006
  0-1A  -> 27-1A   10.026109   80866.0   123.7    0.00656   0.00004  -0.00010  -0.09166
  0-1A  -> 28-1A   10.204269   82303.0   121.5    0.00086   0.00010   0.00003  -0.05193
  0-1A  -> 29-1A   10.255632   82717.3   120.9    0.08078  -0.00059  -0.00020  -0.42512
  0-1A  -> 30-1A   10.363359   83586.1   119.6   -0.06164  -0.39420  -0.13370   0.00068
  0-1A  -> 31-1A   10.473075   84471.1   118.4   -0.00140  -0.03944  -0.10246   0.00004
  0-1A  -> 32-1A   10.652455   85917.9   116.4    0.03411  -0.00379   0.04805  -0.00014
  0-1A  -> 33-1A   10.683173   86165.6   116.1   -0.05916  -0.00004   0.00009   0.17133
  0-1A  -> 34-1A   10.818556   87257.5   114.6   -0.00164  -0.00003  -0.00002  -0.01199
  0-1A  -> 35-1A   10.915075   88036.0   113.6    0.00103  -0.05922  -0.00095  -0.00010
  0-1A  -> 36-1A   11.072988   89309.7   112.0   -0.02274  -0.14804   0.12708   0.00017
  0-1A  -> 37-1A   11.096275   89497.5   111.7   -0.03190  -0.00046   0.00039  -0.11038
  0-1A  -> 38-1A   11.116767   89662.8   111.5    0.07097   0.21301  -0.39370  -0.00054
  0-1A  -> 39-1A   11.202451   90353.9   110.7    0.06188   0.00058  -0.00063   0.08332
  0-1A  -> 40-1A   11.231175   90585.5   110.4   -0.07495   0.00027  -0.00075   0.24994
  0-1A  -> 41-1A   11.259815   90816.5   110.1    0.00641   0.02557   0.13396   0.00012
  0-1A  -> 42-1A   11.450978   92358.4   108.3    0.00385   0.00006   0.00007  -0.00549
  0-1A  -> 43-1A   11.506323   92804.8   107.8   -0.00314   0.00001  -0.00002   0.02954
  0-1A  -> 44-1A   11.656830   94018.7   106.4   -0.02428  -0.18112  -0.12095  -0.00081
  0-1A  -> 45-1A   11.663137   94069.6   106.3    0.01496   0.00039   0.00035  -0.17772
  0-1A  -> 46-1A   11.722617   94549.3   105.8    0.03446  -0.01772  -0.09881  -0.00019
  0-1A  -> 47-1A   11.807018   95230.0   105.0   -0.00494   0.00001  -0.00011   0.16368
  0-1A  -> 48-1A   11.828094   95400.0   104.8   -0.04326   0.00009   0.00003  -0.46298
  0-1A  -> 49-1A   12.034732   97066.7   103.0   -0.00570   0.00003   0.00031   0.03806

Total run time:        2.931 sec

           *** ORCA-CIS/TD-DFT FINISHED WITHOUT ERROR ***
-----------------------
CIS/TD-DFT TOTAL ENERGY
-----------------------

    E(SCF)  =   -191.809520705 Eh
    DE(CIS) =      0.135862618 Eh (Root  1)
    ----------------------------- ---------
    E(tot)  =   -191.673658087 Eh


Maximum memory used throughout the entire CIS-calculation: 83.1 MB
=> NOW LEAVING ORCA_CIS

-------------------------   --------------------
FINAL SINGLE POINT ENERGY      -191.673658086944
-------------------------   --------------------



           ************************************************************
           *        Program running with 40 parallel MPI-processes    *
           *              working on a common directory               *
           ************************************************************

------------------------------------------------------------------------------
                              ORCA PROPERTY CALCULATIONS
------------------------------------------------------------------------------

GBWName                                 ... o601acrolein_orca.gbw
Number of atoms                         ...      8
Number of basis functions               ...     80
Max core memory                         ...   1000 MB

Electric properties:
Dipole moment                           ... YES
Quadrupole moment                       ...  NO
Static polarizability (Dipole/Dipole)   ...  NO
Static polarizability (Dipole/Quad.)    ...  NO
Static polarizability (Quad./Quad.)     ...  NO
Static polarizability (Velocity)        ...  NO
Static hyperpolarizability              ...  NO

Atomic electric properties:
Dipole moment                           ...  NO
Quadrupole moment                       ...  NO
Static polarizability                   ...  NO

Choice of electric origin               ... Center of mass
Position of electric origin             ...     0.147627     0.024184     0.000014

General magnetic properties:
Magnetizability                         ...  NO

EPR properties:
g-Tensor (aka g-matrix)                 ...  NO
Zero-Field splitting spin-orbit         ...  NO
Zero-field splitting spin-spin          ...  NO
Hyperfine couplings                     ...  NO (   0 nuclei)
Quadrupole couplings                    ...  NO (   0 nuclei)
Contact density                         ...  NO (   0 nuclei)

NMR properties:
Chemical shifts                         ...  NO (   0 nuclei)
Spin-rotation constants                 ...  NO (   0 nuclei)
Spin-spin couplings                     ...  NO (   0 nuclei,    0 pairs)

Choice of magnetic origin               ... GIAO
Position of magnetic origin             ...     0.000000     0.000000     0.000000

Properties with geometric perturbations:
SCF Hessian                             ...  NO
IR spectrum                             ...  NO
VCD spectrum                            ...  NO
X-ray spectroscopy properties:
SCF XES/XAS/RIXS spectra                ...  NO

SCF SOC stabilization energy            ...  NO
Diagonal Born-Oppenheimer correction    ...  NO

-------------
DIPOLE MOMENT
-------------

Method             : SCF
Type of density    : Electron Density
Multiplicity       :   1
Irrep              :   0
Energy             :  -191.8095207046485200 Eh
Basis              : AO
                                X                 Y                 Z
Electronic contribution:      3.103021321       0.454264150       0.000370053
Nuclear contribution   :     -4.428797594      -0.725524652      -0.000414901
                        -----------------------------------------
Total Dipole Moment    :     -1.325776272      -0.271260503      -0.000044848
                        -----------------------------------------
Magnitude (a.u.)       :      1.353242397
Magnitude (Debye)      :      3.439668819



--------------------
Rotational spectrum 
--------------------
 
Rotational constants in cm-1:             1.605071             0.156328             0.142454 
Rotational constants in MHz :         48118.830077          4686.593709          4270.648635 

Dipole components along the rotational axes: 
x,y,z [a.u.] :     1.326492    -0.267740    -0.000044 
x,y,z [Debye]:     3.371674    -0.680541    -0.000113 

 

Dipole moment calculation done in   0.0 sec 

Maximum memory used throughout the entire PROP-calculation: 4.6 MB

--------------------------------
SUGGESTED CITATIONS FOR THIS RUN
--------------------------------

Below you find a list of papers that are relevant to this ORCA run
We neither can nor want to force you to cite these papers, but we appreciate if you do
You receive ORCA, which is the product of decades of hard work by many enthusiastic individuals, for free
The only thing we kindly ask in return is that you cite our papers,
We deeply appreciate it, if you show your appreciation for ORCA by not just citing the generic ORCA reference.

Please note that relegating all ORCA citations to the supporting information does *not* help us.
SI sections are not indexed - citations you put there will not count into any citation statistics
But we need these citations in order to attract the funding resources that allow us to do what we are doing

Therefore, if you are a happy ORCA user, please consider citing a few of the papers listed below in the main body of your paper

In addition to the list printed below, the program has created the file o601acrolein_orca.bibtex that contains the list in bibtex format
You can import this file easily into all common literature databanks and citation aid programs


List of essential papers. We consider these as the minimum necessary citations

  1. Neese, F.
     Software update: the ORCA program system, version 6.0
     WIRES Comput. Molec. Sci. 2025 15(1), e70019
     doi.org/10.1002/wcms.7019

List of papers to cite with high priority. The work reported in these papers was absolutely
necessary for this run to complete.
Our perspective: the developers of density functionals and basis sets usually get cited in chemistry papers
Good! But without the algorithms to do something with them, the functionals or basis sets would not do anything.
Hence, in our opinion, the algorithm design and method developments papers are equally worthy of getting cited

  1. Neese, F.; Olbrich, G.
     Efficient use of the resolution of the identity approximation in time-dependent density functional calculations with hybrid density functionals
     Chem. Phys. Lett. 2002 362 , 170-178
     doi.org/10.1016/s0009-2614(02)01053-9
  2. Neese, F.
     An improvement of the resolution of the identity approximation for the formation of the Coulomb matrix
     J. Comp. Chem. 2003 24(14), 1740-1747
     doi.org/10.1002/jcc.10318
  3. Neese, F.; Wennmohs, F.; Hansen, A.; Becker, U.
     Efficient, approximate and parallel Hartree-Fock and hybrid DFT calculations. A 'chain-of-spheres' algorithm for the Hartree-Fock exchange
     Chem. Phys. 2009 356(1-3), 98-109
     doi.org/10.1016/j.chemphys.2008.10.036
  4. Helmich-Paris, B.; de Souza, B.; Neese, F.; Izsák, R.
     An improved chain of spheres for exchange algorithm
     J. Chem. Phys. 2021 155(10), 104109
     doi.org/10.1063/5.0058766
  5. Neese, F.
     The SHARK Integral Generation and Digestion System
     J. Comp. Chem. 2022 44(3), 381
     doi.org/10.1002/jcc.26942

List of suggested additional citations. These are papers that are important in the 'surrounding' of 
of this run, or papers that preceded the highly important papers. If you like your results we are grateful for a citation.

  1. Izsak, R.; Neese, F.
     An overlap fitted chain of spheres exchange method
     J. Chem. Phys. 2011 135 , 144105
     doi.org/10.1063/1.3646921
  2. Izsak, R.; Hansen, A.; Neese, F.
     The resolution of identity and chain of spheres approximations for the LPNO-CCSD singles Fock term
     Molec. Phys. 2012 110 , 2413-2417
     doi.org/10.1080/00268976.2012.687466
  3. Neese, F.
     The ORCA program system
     WIRES Comput. Molec. Sci. 2012 2(1), 73-78
     doi.org/10.1002/wcms.81
  4. Izsak, R.; Neese, F.; Klopper, W.
     Robust fitting techniques in the chain of spheres approximation to the Fock exchange: The role of the complementary space
     J. Chem. Phys. 2013 139 , 
     doi.org/10.1063/1.4819264
  5. Neese, F.
     Software update: the ORCA program system, version 4.0
     WIRES Comput. Molec. Sci. 2018 8(1), 1-6
     doi.org/10.1002/wcms.1327
  6. Neese, F.; Wennmohs, F.; Becker, U.; Riplinger, C.
     The ORCA quantum chemistry program package
     J. Chem. Phys. 2020 152(22), 224108
     doi.org/10.1063/5.0004608
  7. Neese, F.
     Software update: The ORCA program system—Version 5.0
     WIRES Comput. Molec. Sci. 2022 12(1), e1606
     doi.org/10.1002/wcms.1606

List of optional additional citations

  1. Neese, F.
     Approximate second-order SCF convergence for spin unrestricted wavefunctions
     Chem. Phys. Lett. 2000 325(1-3), 93-98
     doi.org/10.1016/s0009-2614(00)00662-x

Timings for individual modules:

Sum of individual times          ...       11.358 sec (=   0.189 min)
Startup calculation              ...        1.668 sec (=   0.028 min)  14.7 %
SCF iterations                   ...        4.083 sec (=   0.068 min)  35.9 %
Property integrals               ...        0.883 sec (=   0.015 min)   7.8 %
Property calculations            ...        0.931 sec (=   0.016 min)   8.2 %
CIS module                       ...        3.793 sec (=   0.063 min)  33.4 %
                             ****ORCA TERMINATED NORMALLY****
TOTAL RUN TIME: 0 days 0 hours 0 minutes 12 seconds 400 msec
