
                                 *****************
                                 * O   R   C   A *
                                 *****************

                                            #,                                       
                                            ###                                      
                                            ####                                     
                                            #####                                    
                                            ######                                   
                                           ########,                                 
                                     ,,################,,,,,                         
                               ,,#################################,,                 
                          ,,##########################################,,             
                       ,#########################################, ''#####,          
                    ,#############################################,,   '####,        
                  ,##################################################,,,,####,       
                ,###########''''           ''''###############################       
              ,#####''   ,,,,##########,,,,          '''####'''          '####       
            ,##' ,,,,###########################,,,                        '##       
           ' ,,###''''                  '''############,,,                           
         ,,##''                                '''############,,,,        ,,,,,,###''
      ,#''                                            '''#######################'''  
     '                                                          ''''####''''         
             ,#######,   #######,   ,#######,      ##                                
            ,#'     '#,  ##    ##  ,#'     '#,    #''#        ,####,    ,#,          
            ##       ##  ##   ,#'  ##            #'  '#       #'       ,# #          
            ##       ##  #######   ##           ,######,      #####,      #          
            '#,     ,#'  ##    ##  '#,     ,#' ,#      #,     #,   #      #          
             '#######'   ##     ##  '#######'  #'      '#     '####' #    #          



                #########################################################
                #                        -***-                          #
                #          Department of theory and spectroscopy        #
                #                                                       #
                #                      Frank Neese                      #
                #                                                       #
                #     Directorship, Architecture, Infrastructure        #
                #                    SHARK, DRIVERS                     #
                #        Core code/Algorithms in most modules           #
                #                                                       #
                #        Max Planck Institute fuer Kohlenforschung      #
                #                Kaiser Wilhelm Platz 1                 #
                #                 D-45470 Muelheim/Ruhr                 #
                #                      Germany                          #
                #                                                       #
                #                  All rights reserved                  #
                #                        -***-                          #
                #########################################################


                         Program Version 6.1.0  -  RELEASE   -
                                (GIT: $679e74b$)
                          ($2025-06-10 18:02:51 +0200$)


 With contributions from (in alphabetic order):
[Max-Planck-Institut fuer Kohlenforschung]                               
  Daniel Aravena         : Magnetic Suceptibility                        
  Michael Atanasov       : Ab Initio Ligand Field Theory (pilot matlab implementation)
  Alexander A. Auer      : GIAO ZORA, VPT2 properties, NMR spectrum      
  Ute Becker             : All parallelization in ORCA, NUMFREQ, NUMCALC 
  Giovanni Bistoni       : ED, misc. LED, open-shell LED, HFLD           
  Dmytro Bykov           : pre 5.0 version of the SCF Hessian            
  Marcos Casanova-Páez   : Triplet and SCS-CIS(D). UHF-(DLPNO)-IP/EA/STEOM-CCSD. UHF-CVS-IP/STEOM-CCSD   
  Vijay G. Chilkuri      : MRCI spin determinant printing, contributions to CSF-ICE 
  Pauline Colinet        : FMM embedding                                 
  Dipayan Datta          : RHF DLPNO-CCSD density                        
  Achintya Kumar Dutta   : EOM-CC, STEOM-CC                              
  Nicolas Foglia         : Exact transition moments, OPA infrastructure, MCD improvements    
  Dmitry Ganyushin       : Spin-Orbit,Spin-Spin,Magnetic field MRCI      
  Miquel Garcia-Rates    : C-PCM and meta-GGA Hessian, CCSD/C-PCM, Gaussian charge scheme 
  Tiago L. C. Gouveia    : GS-ROHF, GS-ROCIS                             
  Yang Guo               : DLPNO-NEVPT2, F12-NEVPT2, CIM, IAO-localization        
  Andreas Hansen         : Spin unrestricted coupled pair/coupled cluster methods 
  Ingolf Harden          : AUTO-CI MPn and infrastructure                
  Benjamin Helmich-Paris : MC-RPA, TRAH-(SCF,CASSCF), AVAS, COSX integrals, SCF dyn. polar., MC-PDFT, srDFT 
  Lee Huntington         : MR-EOM, pCC                                   
  Robert Izsak           : Overlap fitted RIJCOSX, COSX-SCS-MP3, EOM     
  Riya Kayal             : Wick's Theorem for AUTO-CI, AUTO-CI UHF-CCSDT 
  Emily Kempfer          : AUTO-CI RHF CISDT and CCSDT, approximate NEVPT4
  Christian Kollmar      : KDIIS, OOCD, Brueckner-CCSD(T), CCSD density, CASPT2, CASPT2-K, improved NEVPT2 
  Axel Koslowski         : Symmetry handling                             
  Simone Kossmann        : meta-GGA functionals, TD-DFT gradient, OOMP2, (MP2 Hessian; deprecated post 5.0) 
  Lucas Lang             : DCDCAS, Hyperfine gauge corrections, ICE-SOC+SSC
  Marvin Lechner         : AUTO-CI (C++ implementation), FIC-MRCC        
  Spencer Leger          : CASSCF response                               
  Dagmar Lenk            : GEPOL surface, SMD, ORCA-2-JSON               
  Dimitrios Liakos       : Extrapolation schemes; Compound Job, Property file
  Dimitrios Manganas     : Further ROCIS development; embedding schemes. LFT, Crystal Embedding 
  Dimitrios Pantazis     : SARC Basis sets                               
  Anastasios Papadopoulos: AUTO-CI, single reference methods and gradients 
  Taras Petrenko         : pre 6.0 DFT Hessian and TD-DFT gradient,  ECA, NRVS 
  Petra Pikulova         : Analytic Raman intensities                    
  Peter Pinski           : DLPNO-MP2, DLPNO-MP2 Gradient                 
  Shashank Vittal Rao    : ES-AILFT, MagRelax                            
  Christoph Reimann      : Effective Core Potentials                     
  Marius Retegan         : Local ZFS, SOC                                
  Christoph Riplinger    : Optimizer, TS searches, QM/MM, DLPNO-CCSD(T), (RO)-DLPNO pert. Triples 
  Michael Roemelt        : Original ROCIS implementation, recursive CI coupling coefficients
  Masaaki Saitow         : Open-shell DLPNO-CCSD energy and density      
  Barbara Sandhoefer     : DKH picture change effects                    
  Yorick L. A. Schmerwitz: GMF and freeze-and-release deltaSCF, NEB S-IDPP initial path                    
  Kantharuban Sivalingam : CASSCF convergence/infrastructure, NEVPT2, NEVPT3, NEVPT4(SD), FIC-MRCI and CEPA variants
  Bernardo de Souza      : ESD, SOC TD-DFT                               
  Georgi L. Stoychev     : AutoAux, RI-MP2 NMR, DLPNO-MP2 response, X2C  
  Van Anh Tran           : RI-MP2 g-tensors                              
  Willem Van den Heuvel  : Paramagnetic NMR                              
  Zikuan Wang            : NOTCH, Electric field optimization            
  Frank Wennmohs         : Technical directorship and infrastructure     
  Hang Xu                : AUTO-CI-Response properties                   
                                                                         
[FACCTs GmbH]                                                            
  Markus Bursch, Nicolas Foglia, Miquel Garcia-Rates, Ingolf Harden, Hagen Neugebauer, Anastasios Papadopoulos, 
  Christoph Riplinger, Bernardo de Souza, Georgi L. Stoychev                                                    
                                                                 
  APM, various basis sets, CI-OPT, improved COSX, DLPNO-Multilevel,           
  DOCKER, DRACO, updates on ESD, Fragmentator, GOAT, IRC, LR-CPCM, L-BFGS, MBIS, meta-GGA TD-DFT gradient, ML-optimized integration grids, 
  MM, NACMEs, nearIR, NEB, NEB-TS, NL-DFT gradient (VV10), 2- and 3-layer-ONIOM, interface openCOSMO-RS, QMMM,   
  Crystal-QMMM, RESP, rigid body optimization, SF, symmetry and pop. for TD-DFT, various functionals, SOLVATOR                                   
                                                                         
[Other institutions]                                                     
  V. Asgeirsson          : NEB                                           
  Christoph Bannwarth    : sTDA-DFT, sTD-DFT, PBEh-3c, B97-3c, D3        
  Giovanni Bistoni       : ETS/NOCV, ADLD/ADEX, COVALED                  
  Martin Brehm           : Molecular dynamics                            
  Ronald Cardenas        : ETS/NOCV                                      
  Martina Colucci        : COVALED                                       
  Sebastian Ehlert       : rSCAN, r2SCAN, r2SCAN-3c, D4, dhf basis sets  
  Marvin Friede          : D4 for Fr, Ra, Ac-Lr                          
  Lars Goerigk           : TD-DFT with DH, B97 family of functionals     
  Stefan Grimme          : VdW corrections, initial TS optimization, DFT functionals, gCP, sTDA/sTD-DF 
  Waldemar Hujo          : DFT-NL                                        
  H. Jonsson             : NEB                                           
  Holger Kruse           : gCP                                           
  Marcel Mueller         : wB97X-3c, vDZP basis set                      
  Hagen Neugebauer       : wr2SCAN, Native XTB                           
  Gianluca Regni         : ADLD/ADEX                                     
  Tobias Risthaus        : pre 6.0 range-separated hybrid DFT and stability analysis
  Lukas Wittmann         : regularized MP2, r2SCAN double-hybrids, wr2SCAN        
                                                                         
We gratefully acknowledge several colleagues who have allowed us to      
interface, adapt or use parts of their codes:                            
  Ed Valeev, F. Pavosevic, A. Kumar             : LibInt (2-el integral package), F12 methods 
  Garnet Chan, S. Sharma, J. Yang, R. Olivares  : DMRG                   
  Ulf Ekstrom                                   : XCFun DFT Library      
  Mihaly Kallay                                 : mrcc  (arbitrary order and MRCC methods)
  Frank Weinhold                                : gennbo (NPA and NBO analysis)           
  Simon Mueller                                 : openCOSMO-RS                            
  Christopher J. Cramer and Donald G. Truhlar   : smd solvation model                     
  S Lehtola, MJT Oliveira, MAL Marques          : LibXC Library                           
  Liviu Ungur et al                             : ANISO software                          


 Your calculation uses the libint2 library for the computation of 2-el integrals
 For citations please refer to: http://libint.valeyev.net

 Your ORCA version has been built with support for libXC version: 7.0.0
 For citations please refer to: https://libxc.gitlab.io

 This ORCA versions uses:
   CBLAS   interface :  Fast vector & matrix operations
   LAPACKE interface :  Fast linear algebra routines
   SCALAPACK package :  Parallel linear algebra routines
   Shared memory     :  Shared parallel matrices
   BLAS/LAPACK       :  OpenBLAS 0.3.29  USE64BITINT DYNAMIC_ARCH NO_AFFINITY Haswell SINGLE_THREADED
        Core in use  :  Haswell
   Copyright (c) 2011-2014, The OpenBLAS Project


  ***********************************
  * Starting time: Fri Feb 13 12:40:00 2026
  * Host name:     node30
  * Process ID:    1374525
  * Working dir.:  /scratch/lgardre/134620
  ***********************************

NOTE: MaxCore=1000 MB was set to SCF,MP2,MDCI,CIPSI,MRCI,RASCI and CIS
      => If you want to overwrite this, your respective input block should be placed after the MaxCore statement
Warning: RI is on but no J-basis has been assigned. Assigning Def2/J (nothing to worry about!)
================================================================================

----- Orbital basis set information -----
Your calculation utilizes the basis: 6-31+G*
   H-He, Li-Ne : W. J. Hehre, R. Ditchfield and J.A. Pople, J. Chem. Phys. 56, 2257 (1972).
                 Note: He and Ne are unpublished basis sets taken from the Gaussian program.
                 Note: Li and B from J. D. Dill and J. A. Pople, J. Chem. Phys. 62, 2921 (1975).
   Na - Ar     : M. M. Francl, W. J. Pietro, W. J. Hehre, J. S. Binkley, M. S. Gordon, 
                 D. J. DeFrees and J. A. Pople, J. Chem. Phys. 77, 3654 (1982).
   K - Zn      : V. A. Rassolov, J. A. Pople, M. A. Ratner, and T. L. Windus, J. Chem. Phys. 109, 1223 (1998).
   Additional Pol./Diff. from the 6-311G equivalent.

----- AuxJ basis set information -----
Your calculation utilizes the auxiliary basis: def2/J
   H-Rn: F. Weigend, Phys. Chem. Chem. Phys. 8, 1057 (2006).
   Fr-Lr: K. Eichkorn, F. Weigend, O. Treutler, R. Ahlrichs; Theor. Chem. Acc. 97, 119 (1997).

================================================================================
                                        WARNINGS
                       Please study these warnings very carefully!
================================================================================


WARNING: CIS/ROCIS methods need fully converged wavefunctions
  ===> : Setting SCFConvForced true
         You can overwrite this default with %scf ConvForced false 


================================================================================
                                       INPUT FILE
================================================================================
NAME = o601acrolein_orca_B3LYPG.com
|  1> %pal nprocs 40
|  2>    end
|  3> !  B3LYP/G
|  4> ! PrintBasis 6-31+G* PrintMOs
|  5> 
|  6> %output
|  7>     print[p_mos] 1
|  8> end #output
|  9>  
| 10> %maxcore 1000
| 11> 
| 12> %tddft
| 13>     nroots 49
| 14>     maxdim 5
| 15>     tda true
| 16> end
| 17> 
| 18> * xyz 0 1
| 19>     C   -1.752102   -0.142545   -0.000106
| 20>     C   -0.562831    0.448403    0.000249
| 21>     H   -1.837933   -1.224814   -0.000030
| 22>     H   -2.676050    0.422103   -0.000306
| 23>     H   -0.446147    1.526721   -0.000175
| 24>     C   0.675499    -0.348536    0.000071
| 25>     H   0.525077    -1.447883    0.000100
| 26>     O   1.783957     0.122493   -0.000109
| 27> *
| 28> 
| 29> 
| 30>                          ****END OF INPUT****
================================================================================

                       ****************************
                       * Single Point Calculation *
                       ****************************

---------------------------------
CARTESIAN COORDINATES (ANGSTROEM)
---------------------------------
  C     -1.752102   -0.142545   -0.000106
  C     -0.562831    0.448403    0.000249
  H     -1.837933   -1.224814   -0.000030
  H     -2.676050    0.422103   -0.000306
  H     -0.446147    1.526721   -0.000175
  C      0.675499   -0.348536    0.000071
  H      0.525077   -1.447883    0.000100
  O      1.783957    0.122493   -0.000109

----------------------------
CARTESIAN COORDINATES (A.U.)
----------------------------
  NO LB      ZA    FRAG     MASS         X           Y           Z
   0 C     6.0000    0    12.011   -3.310993   -0.269371   -0.000200
   1 C     6.0000    0    12.011   -1.063596    0.847359    0.000471
   2 H     1.0000    0     1.008   -3.473190   -2.314563   -0.000057
   3 H     1.0000    0     1.008   -5.057002    0.797659   -0.000578
   4 H     1.0000    0     1.008   -0.843096    2.885085   -0.000331
   5 C     6.0000    0    12.011    1.276508   -0.658638    0.000134
   6 H     1.0000    0     1.008    0.992252   -2.736102    0.000189
   7 O     8.0000    0    15.999    3.371190    0.231478   -0.000206

--------------------------------
INTERNAL COORDINATES (ANGSTROEM)
--------------------------------
 C      0   0   0     0.000000000000     0.00000000     0.00000000
 C      1   0   0     1.328000442835     0.00000000     0.00000000
 H      1   2   0     1.085667147287   120.95718851     0.00000000
 H      1   2   3     1.082823767105   122.14709170   179.98900902
 H      2   1   3     1.084612854781   122.59864498   179.97748331
 C      2   1   3     1.472607547959   120.81355365     0.03106361
 H      6   2   1     1.109590287148   114.97237733   359.97315834
 O      6   2   1     1.204386768860   124.21369228   179.97238961

---------------------------
INTERNAL COORDINATES (A.U.)
---------------------------
 C      0   0   0     0.000000000000     0.00000000     0.00000000
 C      1   0   0     2.509557142684     0.00000000     0.00000000
 H      1   2   0     2.051613580968   120.95718851     0.00000000
 H      1   2   3     2.046240371130   122.14709170   179.98900902
 H      2   1   3     2.049621256866   122.59864498   179.97748331
 C      2   1   3     2.782824968387   120.81355365     0.03106361
 H      6   2   1     2.096821763569   114.97237733   359.97315834
 O      6   2   1     2.275961152464   124.21369228   179.97238961

---------------------
BASIS SET INFORMATION
---------------------
There are 3 groups of distinct atoms

 Group   1 Type C   : 11s5p1d contracted to 4s3p1d pattern {6311/311/1}
 Group   2 Type H   : 4s contracted to 2s pattern {31}
 Group   3 Type O   : 11s5p1d contracted to 4s3p1d pattern {6311/311/1}

Atom   0C    basis set group =>   1
Atom   1C    basis set group =>   1
Atom   2H    basis set group =>   2
Atom   3H    basis set group =>   2
Atom   4H    basis set group =>   2
Atom   5C    basis set group =>   1
Atom   6H    basis set group =>   2
Atom   7O    basis set group =>   3

-------------------------
BASIS SET IN INPUT FORMAT
-------------------------

 # Basis set for element : H 
 NewGTO H 
 S 3 
   1      18.7311370000      0.0334945995
   2       2.8253937000      0.2347269467
   3       0.6401217000      0.8137573184
 S 1 
   1       0.1612778000      1.0000000000
  end;

 # Basis set for element : C 
 NewGTO C 
 S 6 
   1    3047.5249000000      0.0018347002
   2     457.3695100000      0.0140373012
   3     103.9486900000      0.0688426061
   4      29.2101550000      0.2321844206
   5       9.2866630000      0.4679413416
   6       3.1639270000      0.3623120322
 S 3 
   1       7.8682724000     -0.1193324086
   2       1.8812885000     -0.1608542116
   3       0.5442493000      1.1434564826
 P 3 
   1       7.8682724000      0.0689990956
   2       1.8812885000      0.3164239798
   3       0.5442493000      0.7443082524
 S 1 
   1       0.1687144000      1.0000000000
 P 1 
   1       0.1687144000      1.0000000000
 S 1 
   1       0.0438000000      1.0000000000
 P 1 
   1       0.0438000000      1.0000000000
 D 1 
   1       0.8000000000      1.0000000000
  end;

 # Basis set for element : O 
 NewGTO O 
 S 6 
   1    5484.6717000000      0.0018310998
   2     825.2349500000      0.0139500985
   3     188.0469600000      0.0684450927
   4      52.9645000000      0.2327142753
   5      16.8975700000      0.4701929501
   6       5.7996353000      0.3585208619
 S 3 
   1      15.5396160000     -0.1107775038
   2       3.5999336000     -0.1480263051
   3       1.0137618000      1.1307670390
 P 3 
   1      15.5396160000      0.0708742995
   2       3.5999336000      0.3397527978
   3       1.0137618000      0.7271585953
 S 1 
   1       0.2700058000      1.0000000000
 P 1 
   1       0.2700058000      1.0000000000
 S 1 
   1       0.0845000000      1.0000000000
 P 1 
   1       0.0845000000      1.0000000000
 D 1 
   1       0.8000000000      1.0000000000
  end;

---------------------------------
AUXILIARY/J BASIS SET INFORMATION
---------------------------------
There are 3 groups of distinct atoms

 Group   1 Type C   : 12s5p4d2f1g contracted to 6s4p3d1f1g pattern {711111/2111/211/2/1}
 Group   2 Type H   : 5s2p1d contracted to 3s1p1d pattern {311/2/1}
 Group   3 Type O   : 12s5p4d2f1g contracted to 6s4p3d1f1g pattern {711111/2111/211/2/1}

Atom   0C    basis set group =>   1
Atom   1C    basis set group =>   1
Atom   2H    basis set group =>   2
Atom   3H    basis set group =>   2
Atom   4H    basis set group =>   2
Atom   5C    basis set group =>   1
Atom   6H    basis set group =>   2
Atom   7O    basis set group =>   3

-------------------------------------
AUXILIARY/J BASIS SET IN INPUT FORMAT
-------------------------------------

 # Auxiliary/J basis set for element : H 
 NewAuxJGTO H 
 S 3 
   1      15.6752927000      0.1007184237
   2       3.6063578000      0.3404257499
   3       1.2080016000      0.6491996172
 S 1 
   1       0.4726794000      1.0000000000
 S 1 
   1       0.2018100000      1.0000000000
 P 2 
   1       2.0281365000      0.5596620919
   2       0.5358730000      0.5596620919
 D 1 
   1       2.2165124000      1.0000000000
  end;

 # Auxiliary/J basis set for element : C 
 NewAuxJGTO C 
 S 7 
   1    1861.0916331000      0.0134602335
   2     642.9939764000      0.0299160374
   3     235.1105725000      0.1008649584
   4      90.7028894000      0.2370970548
   5      36.7794552000      0.3924037254
   6      15.6046273000      0.3195862154
   7       6.8907294000      0.0530104441
 S 1 
   1       3.1478850000     -1.0000000000
 S 1 
   1       1.4777287000      1.0000000000
 S 1 
   1       0.7076466000      1.0000000000
 S 1 
   1       0.3430122000      1.0000000000
 S 1 
   1       0.1669453000      1.0000000000
 P 2 
   1      13.5472892000     -0.6769313712
   2       5.4669419000     -0.3779500978
 P 1 
   1       2.1751721000      1.0000000000
 P 1 
   1       0.8582194000      1.0000000000
 P 1 
   1       0.3376720000      1.0000000000
 D 2 
   1       5.9287253000     -0.3533329857
   2       1.9809209000     -0.7456525731
 D 1 
   1       0.8055417000     -1.0000000000
 D 1 
   1       0.3531244000     -1.0000000000
 F 2 
   1       1.6755626000      0.6311076882
   2       0.5997536000      0.4968166032
 G 1 
   1       1.0024600000     -1.0000000000
  end;

 # Auxiliary/J basis set for element : O 
 NewAuxJGTO O 
 S 7 
   1    2876.8216605000      0.0168151159
   2    1004.7443032000      0.0340137548
   3     369.7579954000      0.1194951309
   4     142.9442404000      0.2664627624
   5      57.8366425000      0.4202764046
   6      24.3864983000      0.2765077335
   7      10.6622662000      0.0057008815
 S 1 
   1       4.8070437000     -1.0000000000
 S 1 
   1       2.2210770000      1.0000000000
 S 1 
   1       1.0447795000      1.0000000000
 S 1 
   1       0.4968425000      1.0000000000
 S 1 
   1       0.2371384000      1.0000000000
 P 2 
   1      64.2613382000     -0.2731534179
   2      16.3006076000     -0.8168011598
 P 1 
   1       4.3550542000      1.0000000000
 P 1 
   1       1.2019554000      1.0000000000
 P 1 
   1       0.3354196000      1.0000000000
 D 2 
   1       9.2146611000     -0.4661230638
   2       2.8435251000     -0.6600908911
 D 1 
   1       0.9955759000     -1.0000000000
 D 1 
   1       0.3649441000     -1.0000000000
 F 2 
   1       2.6420115000      0.5931563945
   2       0.7345613000      0.5931563945
 G 1 
   1       1.3931000000     -1.0000000000
  end;



           ************************************************************
           *        Program running with 40 parallel MPI-processes    *
           *              working on a common directory               *
           ************************************************************
------------------------------------------------------------------------------
                             ORCA STARTUP CALCULATIONS
                           -- RI-GTO INTEGRALS CHOSEN --
------------------------------------------------------------------------------
------------------------------------------------------------------------------
                   ___                                                        
                  /   \      - P O W E R E D   B Y -                         
                 /     \                                                     
                 |  |  |   _    _      __       _____    __    __             
                 |  |  |  | |  | |    /  \     |  _  \  |  |  /  |          
                  \  \/   | |  | |   /    \    | | | |  |  | /  /          
                 / \  \   | |__| |  /  /\  \   | |_| |  |  |/  /          
                |  |  |   |  __  | /  /__\  \  |    /   |      \           
                |  |  |   | |  | | |   __   |  |    \   |  |\   \          
                \     /   | |  | | |  |  |  |  | |\  \  |  | \   \       
                 \___/    |_|  |_| |__|  |__|  |_| \__\ |__|  \__/        
                                                                              
                      - O R C A' S   B I G   F R I E N D -                    
                                      &                                       
                       - I N T E G R A L  F E E D E R -                       
                                                                              
 v1 FN, 2020, v2 2021, v3 2022-2024                                           
------------------------------------------------------------------------------


----------------------
SHARK INTEGRAL PACKAGE
----------------------

Number of atoms                             ...      8
Number of basis functions                   ...     80
Number of shells                            ...     40
Maximum angular momentum                    ...      2
Integral batch strategy                     ... SHARK/LIBINT Hybrid
RI-J (if used) integral strategy            ... SPLIT-RIJ (Revised 2003 algorithm where possible)
Printlevel                                  ...      1
Contraction scheme used                     ... SEGMENTED contraction
Prescreening option                         ... SCHWARTZ
   Thresh                                   ... 1.000e-10
   Tcut                                     ... 1.000e-11
   Tpresel                                  ... 1.000e-11 
Coulomb Range Separation                    ... NOT USED
Exchange Range Separation                   ... NOT USED
Multipole approximations                    ... NOT USED
Finite Nucleus Model                        ... NOT USED
CABS basis                                  ... NOT available
Auxiliary Coulomb fitting basis             ... AVAILABLE
   # of basis functions in Aux-J            ...    240
   # of shells in Aux-J                     ...     80
   Maximum angular momentum in Aux-J        ...      4
Auxiliary J/K fitting basis                 ... NOT available
Auxiliary Correlation fitting basis         ... NOT available
Auxiliary 'external' fitting basis          ... NOT available

Checking pre-screening integrals            ... done (  0.0 sec) Dimension = 40
   => SHARK Basis and OBASIS are compatible. Storing Pre-screening
Shell pair information
Shell pair cut-off parameter TPreSel        ...   1.0e-11
Total number of shell pairs                 ...       820
Shell pairs after pre-screening             ...       809
Total number of primitive shell pairs       ...      3666
Primitive shell pairs kept                  ...      2901
          la=0 lb=0:    293 shell pairs
          la=1 lb=0:    286 shell pairs
          la=1 lb=1:     78 shell pairs
          la=2 lb=0:     94 shell pairs
          la=2 lb=1:     48 shell pairs
          la=2 lb=2:     10 shell pairs

Checking whether 4 symmetric matrices of dimension 80 fit in memory
:Max Core in MB      =   1000.00
 MB in use           =      4.36
 MB left             =    995.64
 MB needed           =      0.10
 Data fit in memory  = YES
Calculating RI/J V-Matrix + Cholesky decomp.... done (  0.0 sec)
Calculating Nuclear repulsion               ... done (  0.0 sec) ENN=    103.418920705790 Eh

Diagonalization of the overlap matrix:
Smallest eigenvalue                        ... 1.111e-04
Time for diagonalization                   ...    0.002 sec
Threshold for overlap eigenvalues          ... 1.000e-07
Number of eigenvalues below threshold      ... 0
Time for construction of square roots      ...    0.001 sec
Total time needed                          ...    0.004 sec

-------------------
DFT GRID GENERATION
-------------------

General Integration Accuracy     IntAcc      ... 4.388
Radial Grid Type                 RadialGrid  ... OptM3 with GC (2021)
Angular Grid (max. ang.)         AngularGrid ... 4 (Lebedev-302)
Angular grid pruning method      GridPruning ... 4 (adaptive)
Weight generation scheme         WeightScheme... mBecke (2022)
Basis function cutoff            BFCut       ... 1.0000e-10
Integration weight cutoff        WCut        ... 1.0000e-14
Partially contracted basis set               ... off
Rotationally invariant grid construction     ... off
Angular grids for H and He will be reduced by one unit
Diffuse basis detected: some atoms will have their outermost
                        angular grid increased by 1.

Total number of grid points                  ...    38551
Total number of batches                      ...      606
Average number of points per batch           ...       63
Average number of grid points per atom       ...     4819

--------------------
COSX GRID GENERATION
--------------------

GRIDX 1
-------
General Integration Accuracy     IntAcc      ... 3.816
Radial Grid Type                 RadialGrid  ... OptM3 with GC (2021)
Angular Grid (max. ang.)         AngularGrid ... 1 (Lebedev-50)
Angular grid pruning method      GridPruning ... 4 (adaptive)
Weight generation scheme         WeightScheme... mBecke (2022)
Basis function cutoff            BFCut       ... 1.0000e-10
Integration weight cutoff        WCut        ... 1.0000e-14
Partially contracted basis set               ... on
Rotationally invariant grid construction     ... off
Angular grids for H and He will be reduced by one unit
Diffuse basis detected: some atoms will have their outermost
                        angular grid increased by 1.

Total number of grid points                  ...     4968
Total number of batches                      ...       42
Average number of points per batch           ...      118
Average number of grid points per atom       ...      621
UseSFitting                                  ... on

GRIDX 2
-------
General Integration Accuracy     IntAcc      ... 4.020
Radial Grid Type                 RadialGrid  ... OptM3 with GC (2021)
Angular Grid (max. ang.)         AngularGrid ... 2 (Lebedev-110)
Angular grid pruning method      GridPruning ... 4 (adaptive)
Weight generation scheme         WeightScheme... mBecke (2022)
Basis function cutoff            BFCut       ... 1.0000e-10
Integration weight cutoff        WCut        ... 1.0000e-14
Partially contracted basis set               ... on
Rotationally invariant grid construction     ... off
Angular grids for H and He will be reduced by one unit
Diffuse basis detected: some atoms will have their outermost
                        angular grid increased by 1.

Total number of grid points                  ...    12023
Total number of batches                      ...       97
Average number of points per batch           ...      123
Average number of grid points per atom       ...     1503
UseSFitting                                  ... on

GRIDX 3
-------
General Integration Accuracy     IntAcc      ... 4.338
Radial Grid Type                 RadialGrid  ... OptM3 with GC (2021)
Angular Grid (max. ang.)         AngularGrid ... 3 (Lebedev-194)
Angular grid pruning method      GridPruning ... 4 (adaptive)
Weight generation scheme         WeightScheme... mBecke (2022)
Basis function cutoff            BFCut       ... 1.0000e-10
Integration weight cutoff        WCut        ... 1.0000e-14
Partially contracted basis set               ... on
Rotationally invariant grid construction     ... off
Angular grids for H and He will be reduced by one unit
Diffuse basis detected: some atoms will have their outermost
                        angular grid increased by 1.

Total number of grid points                  ...    25975
Total number of batches                      ...      206
Average number of points per batch           ...      126
Average number of grid points per atom       ...     3247
UseSFitting                                  ... on
Grids setup in   0.7 sec
Initializing property integral containers    ... done (  0.0 sec)

SHARK setup successfully completed in   0.8 seconds

Maximum memory used throughout the entire STARTUP-calculation: 12.0 MB


           ************************************************************
           *        Program running with 40 parallel MPI-processes    *
           *              working on a common directory               *
           ************************************************************
-------------------------------------------------------------------------------
                                 ORCA GUESS
                   Start orbitals & Density for SCF / CASSCF
-------------------------------------------------------------------------------

------------
SCF SETTINGS
------------
Hamiltonian:
 Density Functional     Method          .... DFT(GTOs)
 Exchange Functional    Exchange        .... B88
   X-Alpha parameter    XAlpha          ....  0.666667
   Becke's b parameter  XBeta           ....  0.004200
 Correlation Functional Correlation     .... LYP
 LDA part of GGA corr.  LDAOpt          .... VWN-3
 Gradients option       PostSCFGGA      .... off
 Hybrid DFT is turned on
   Fraction HF Exchange ScalHFX         ....  0.200000
   Scaling of DF-GGA-X  ScalDFX         ....  0.720000
   Scaling of DF-GGA-C  ScalDFC         ....  0.810000
   Scaling of DF-LDA-C  ScalLDAC        ....  1.000000
   Perturbative correction              ....  0.000000
   NL short-range parameter             ....  4.800000
 RI-approximation to the Coulomb term is turned on
   Number of AuxJ basis functions       .... 240
   RIJ-COSX (HFX calculated with COS-X)).... on


General Settings:
 Integral files         IntName         .... o601acrolein_orca_B3LYPG
 Hartree-Fock type      HFTyp           .... RHF
 Total Charge           Charge          ....    0
 Multiplicity           Mult            ....    1
 Number of Electrons    NEL             ....   30
 Basis Dimension        Dim             ....   80
 Nuclear Repulsion      ENuc            ....    103.4189207058 Eh

Convergence Acceleration:
 AO-DIIS                CNVDIIS         .... on
   Start iteration      DIISMaxIt       ....    12
   Startup error        DIISStart       ....  0.200000
   # of expansion vecs  DIISMaxEq       ....     5
   Bias factor          DIISBfac        ....   1.050
   Max. coefficient     DIISMaxC        ....  10.000
 MO-DIIS                CNVKDIIS        .... off
 Trust-Rad. Augm. Hess. CNVTRAH         .... auto
   Auto Start mean grad. ratio tolernc. ....  1.125000
   Auto Start start iteration           ....    50
   Auto Start num. interpolation iter.  ....    10
   Max. Number of Micro iterations      ....    24
   Max. Number of Macro iterations      .... Maxiter - #DIIS iter
   Number of Davidson start vectors     ....     2
   Converg. threshold    (grad. norm)   ....   5.000e-05
   Grad. Scal. Fac. for Micro threshold ....   0.100
   Minimum threshold for Micro iter.    ....   1.000e-02
   NR start threshold (gradient norm)   ....   1.000e-04
   Initial trust radius                 ....   0.400
   Minimum AH scaling param. (alpha)    ....   1.000
   Maximum AH scaling param. (alpha)    .... 1000.000
   Quad. conv. algorithm                .... NR
   White noise on init. David. guess    .... on
   Maximum white noise                  ....   0.010
   Pseudo random numbers                .... off
   Inactive MOs                         .... canonical
   Orbital update algorithm             .... Taylor
   Preconditioner                       .... Diag
   Full preconditioner red. dimension   ....   250
 SOSCF                 CNVSOSCF           .... on
   Start iteration     SOSCFMaxIt         ....   150
   Startup grad/error  SOSCFStart         ....  0.003300
   Hessian update      SOSCFHessUp        .... L-BFGS
   Autom. constraints  SOSCFAutoConstrain .... off
 Level Shifting         CNVShift        .... on
   Level shift para.    LevelShift      ....    0.2500
   Turn off err/grad.   ShiftErr        ....    0.0010
 Zerner damping         CNVZerner       .... off
 Static damping         CNVDamp         .... on
   Fraction old density DampFac         ....    0.7000
   Max. Damping (<1)    DampMax         ....    0.9800
   Min. Damping (>=0)   DampMin         ....    0.0000
   Turn off err/grad.   DampErr         ....    0.1000

SCF Procedure:
 Maximum # iterations   MaxIter         ....   125
 SCF integral mode      SCFMode         .... Direct
   Integral package                     .... SHARK and LIBINT hybrid scheme
 Reset frequency        DirectResetFreq ....    20
 Integral Threshold     Thresh          ....  1.000e-10 Eh
 Primitive CutOff       TCut            ....  1.000e-11 Eh

Convergence Tolerance:
 Convergence Check Mode ConvCheckMode   .... Total+1el-Energy
 Convergence forced     ConvForced      .... 1
 Energy Change          TolE            ....  1.000e-06 Eh
 1-El. energy change                    ....  1.000e-03 Eh
 Orbital Gradient       TolG            ....  5.000e-05
 Orbital Rotation angle TolX            ....  5.000e-05
 DIIS Error             TolErr          ....  1.000e-06

------------------------------
INITIAL GUESS: MODEL POTENTIAL
------------------------------
Loading Hartree-Fock densities                     ... done
Calculating cut-offs                               ... done
Initializing the effective Hamiltonian             ... done
Setting up the integral package (SHARK)            ... done
Starting the Coulomb interaction                   ... done (   0.0 sec)
Making the grid                                    ... done (   0.1 sec)
Mapping shells                                     ... done
Starting the XC term evaluation                    ... done (   0.0 sec)
  promolecular density results
     # of electrons  =     29.999519178
     EX              =    -24.754361873
     EC              =     -0.996889777
     EX+EC           =    -25.751251649
Transforming the Hamiltonian                       ... done (   0.0 sec)
Diagonalizing the Hamiltonian                      ... done (   0.0 sec)
Back transforming the eigenvectors                 ... done (   0.0 sec)
Now organizing SCF variables                       ... done
                      ------------------
                      INITIAL GUESS DONE (   0.1 sec)
                      ------------------
             **** ENERGY FILE WAS UPDATED (o601acrolein_orca_B3LYPG.en.tmp) ****
Finished Guess after   0.9 sec
Maximum memory used throughout the entire GUESS-calculation: 6.6 MB


           ************************************************************
           *        Program running with 40 parallel MPI-processes    *
           *              working on a common directory               *
           ************************************************************

-------------------------------------------------------------------------------------------
                                      ORCA LEAN-SCF
                              memory conserving SCF solver
-------------------------------------------------------------------------------------------

----------------------------------------D-I-I-S--------------------------------------------
Iteration    Energy (Eh)           Delta-E    RMSDP     MaxDP     DIISErr   Damp  Time(sec)
-------------------------------------------------------------------------------------------
               ***  Starting incremental Fock matrix formation  ***
    1    -191.7962597796941964     0.00e+00  6.26e-02  1.28e-01  2.42e-01  0.700   0.2
    2    -191.8560578579094340    -5.98e-02  5.31e-02  1.41e-01  9.20e-02  0.700   0.3
                               ***Turning on AO-DIIS***
    3    -191.8767193863716329    -2.07e-02  2.37e-02  6.03e-02  3.44e-02  0.700   0.2
    4    -191.8900517282544342    -1.33e-02  3.30e-02  7.29e-02  1.57e-02  0.000   0.2
    5    -191.9199313685033985    -2.99e-02  1.72e-02  5.88e-02  7.16e-03  0.000   0.2
                              *** Initializing SOSCF ***
---------------------------------------S-O-S-C-F--------------------------------------
Iteration    Energy (Eh)           Delta-E    RMSDP     MaxDP     MaxGrad    Time(sec)
--------------------------------------------------------------------------------------
    6    -191.9201595439909624    -2.28e-04  1.00e-02  3.46e-02  1.43e-03     0.2
               *** Restarting incremental Fock matrix formation ***
    7    -191.9202037893203396    -4.42e-05  9.02e-03  3.10e-02  1.97e-04     0.2
    8    -191.9202047022619126    -9.13e-07  3.02e-03  1.03e-02  3.21e-04     0.2
                 **** Energy Check signals convergence ****

               *****************************************************
               *                     SUCCESS                       *
               *           SCF CONVERGED AFTER   8 CYCLES          *
               *****************************************************

Recomputing exchange energy using gridx3       ... done (    0.122 sec)
Old exchange energy                            :     -5.025497580 Eh
New exchange energy                            :     -5.025471082 Eh
Exchange energy change after final integration :      0.000026498 Eh
Total energy after final integration           :   -191.920178961 Eh
             **** ENERGY FILE WAS UPDATED (o601acrolein_orca_B3LYPG.en.tmp) ****

----------------
TOTAL SCF ENERGY
----------------

Total Energy       :       -191.92017896105475 Eh           -5222.41357 eV

Components:
Nuclear Repulsion  :        103.41892070578955 Eh            2814.17190 eV
Electronic Energy  :       -295.33912616480239 Eh           -8036.58620 eV
One Electron Energy:       -463.74451488805454 Eh          -12619.12979 eV
Two Electron Energy:        168.40538872325214 Eh            4582.54360 eV

Virial components:
Potential Energy   :       -382.63485226776095 Eh          -10412.02367 eV
Kinetic Energy     :        190.71467330670617 Eh            5189.61010 eV
Virial Ratio       :          2.00632099058477

DFT components:
N(Alpha)           :       15.000023917046 electrons
N(Beta)            :       15.000023917046 electrons
N(Total)           :       30.000047834092 electrons
E(X)               :      -19.981954323830 Eh       
E(C)               :       -1.293994576003 Eh       
E(XC)              :      -21.275948899833 Eh       

---------------
SCF CONVERGENCE
---------------

  Last Energy change         ...    9.1294e-07  Tolerance :   1.0000e-06
  Last MAX-Density change    ...    1.0268e-02  Tolerance :   1.0000e-05
  Last RMS-Density change    ...    3.0207e-03  Tolerance :   1.0000e-06
  Last DIIS Error            ...    1.4250e-03  Tolerance :   1.0000e-06
  Last Orbital Gradient      ...    3.2119e-04  Tolerance :   5.0000e-05
  Last Orbital Rotation      ...    7.0026e-04  Tolerance :   5.0000e-05


----------------
ORBITAL ENERGIES
----------------

  NO   OCC          E(Eh)            E(eV) 
   0   2.0000     -19.160167      -521.3746 
   1   2.0000     -10.283228      -279.8209 
   2   2.0000     -10.223083      -278.1842 
   3   2.0000     -10.214074      -277.9391 
   4   2.0000      -1.063864       -28.9492 
   5   2.0000      -0.817218       -22.2376 
   6   2.0000      -0.659512       -17.9462 
   7   2.0000      -0.586163       -15.9503 
   8   2.0000      -0.491755       -13.3813 
   9   2.0000      -0.487874       -13.2757 
  10   2.0000      -0.433524       -11.7968 
  11   2.0000      -0.414215       -11.2714 
  12   2.0000      -0.405475       -11.0335 
  13   2.0000      -0.306798        -8.3484 
  14   2.0000      -0.271137        -7.3780 
  15   0.0000      -0.077349        -2.1048 
  16   0.0000       0.007213         0.1963 
  17   0.0000       0.019368         0.5270 
  18   0.0000       0.021183         0.5764 
  19   0.0000       0.033621         0.9149 
  20   0.0000       0.062166         1.6916 
  21   0.0000       0.062229         1.6933 
  22   0.0000       0.068317         1.8590 
  23   0.0000       0.091235         2.4826 
  24   0.0000       0.093734         2.5506 
  25   0.0000       0.115367         3.1393 
  26   0.0000       0.128847         3.5061 
  27   0.0000       0.135694         3.6924 
  28   0.0000       0.160476         4.3668 
  29   0.0000       0.190049         5.1715 
  30   0.0000       0.215712         5.8698 
  31   0.0000       0.223689         6.0869 
  32   0.0000       0.253842         6.9074 
  33   0.0000       0.255200         6.9443 
  34   0.0000       0.275265         7.4903 
  35   0.0000       0.293036         7.9739 
  36   0.0000       0.311186         8.4678 
  37   0.0000       0.365800         9.9539 
  38   0.0000       0.396250        10.7825 
  39   0.0000       0.427540        11.6339 
  40   0.0000       0.605250        16.4697 
  41   0.0000       0.630051        17.1446 
  42   0.0000       0.681508        18.5448 
  43   0.0000       0.690662        18.7939 
  44   0.0000       0.716205        19.4889 
  45   0.0000       0.762151        20.7392 
  46   0.0000       0.775208        21.0945 
  47   0.0000       0.863633        23.5007 
  48   0.0000       0.903691        24.5907 
  49   0.0000       0.931066        25.3356 
  50   0.0000       0.961310        26.1586 
  51   0.0000       1.012637        27.5553 
  52   0.0000       1.064604        28.9694 
  53   0.0000       1.099760        29.9260 
  54   0.0000       1.182910        32.1886 
  55   0.0000       1.212180        32.9851 
  56   0.0000       1.220914        33.2228 
  57   0.0000       1.285839        34.9895 
  58   0.0000       1.321458        35.9587 
  59   0.0000       1.351989        36.7895 
  60   0.0000       1.426902        38.8280 
  61   0.0000       1.538284        41.8588 
  62   0.0000       1.640446        44.6388 
  63   0.0000       1.676627        45.6233 
  64   0.0000       1.803305        49.0704 
  65   0.0000       1.824392        49.6442 
  66   0.0000       1.832666        49.8694 
  67   0.0000       1.931253        52.5521 
  68   0.0000       2.007075        54.6153 
  69   0.0000       2.085860        56.7591 
  70   0.0000       2.137171        58.1554 
  71   0.0000       2.196171        59.7608 
  72   0.0000       2.318917        63.1010 
  73   0.0000       2.411503        65.6203 
  74   0.0000       2.449582        66.6565 
  75   0.0000       2.596274        70.6482 
  76   0.0000       2.638663        71.8017 
  77   0.0000       2.884827        78.5001 
  78   0.0000       2.991464        81.4019 
  79   0.0000       3.113958        84.7351 
------------------
MOLECULAR ORBITALS (RHF, ROHF)
------------------
                      0         1         2         3         4         5   
                 -19.16017 -10.28323 -10.22308 -10.21407  -1.06386  -0.81722
                   2.00000   2.00000   2.00000   2.00000   2.00000   2.00000
                  --------  --------  --------  --------  --------  --------
  0C   1s        -0.000022 -0.000058  0.994055 -0.047038  0.003691  0.144825
  0C   2s        -0.000201 -0.000472  0.036564 -0.003140 -0.008479 -0.275558
  0C   1pz       -0.000000 -0.000000  0.000000 -0.000001 -0.000001 -0.000029
  0C   1px       -0.000247 -0.000338  0.000868 -0.001548 -0.006460 -0.098019
  0C   1py        0.000163  0.000142  0.000362 -0.000796 -0.000172 -0.038059
  0C   3s        -0.001972 -0.000108 -0.028463  0.008460 -0.014365 -0.228625
  0C   2pz       -0.000000  0.000000 -0.000001  0.000001 -0.000003 -0.000009
  0C   2px        0.000801  0.001413 -0.002096  0.003511  0.004231 -0.018494
  0C   2py       -0.001616 -0.001296 -0.000928  0.000510 -0.010514  0.005029
  0C   4s         0.003254 -0.017228  0.020566 -0.043261 -0.068448 -0.026882
  0C   3pz        0.000000 -0.000002  0.000002 -0.000003 -0.000005 -0.000006
  0C   3px        0.000813 -0.002116  0.006206 -0.009645 -0.015277 -0.004104
  0C   3py        0.000457 -0.003102  0.003633 -0.003223 -0.004453  0.002895
  0C   1dz2      -0.000083 -0.000187 -0.000631  0.000799  0.000091  0.013037
  0C   1dxz      -0.000000 -0.000000  0.000000 -0.000001 -0.000000 -0.000007
  0C   1dyz      -0.000000  0.000000  0.000000 -0.000000  0.000000 -0.000000
  0C   1dx2y2    -0.000015 -0.000094  0.000373 -0.000699 -0.000399 -0.003837
  0C   1dxy       0.000102 -0.000012  0.000447 -0.001088 -0.000186 -0.003389
  1C   1s         0.000044  0.001909  0.046926  0.994074  0.019490  0.160457
  1C   2s         0.000082 -0.000263  0.000390  0.037771 -0.036198 -0.308851
  1C   1pz        0.000000  0.000000  0.000000 -0.000001  0.000006  0.000055
  1C   1px       -0.000059 -0.000619  0.001589 -0.000565 -0.025817  0.062599
  1C   1py        0.000184  0.000546  0.000787 -0.000984  0.009682  0.067474
  1C   3s        -0.002145  0.002379  0.005108 -0.031855 -0.021764 -0.198637
  1C   2pz        0.000000 -0.000000 -0.000001  0.000002  0.000003  0.000013
  1C   2px       -0.003729  0.000428 -0.003517  0.000101 -0.019848 -0.002819
  1C   2py       -0.001385 -0.001101 -0.001219  0.003727 -0.006864 -0.023215
  1C   4s         0.008960  0.003177  0.019538  0.076920  0.114492  0.109370
  1C   3pz        0.000000 -0.000001  0.000000 -0.000004 -0.000005  0.000007
  1C   3px        0.004063 -0.011270  0.012320 -0.003192 -0.001762  0.011360
  1C   3py       -0.001063 -0.001289 -0.006538 -0.013907 -0.020004 -0.034596
  1C   1dz2       0.000036  0.000634  0.000691 -0.000774  0.003452  0.011874
  1C   1dxz       0.000000  0.000000 -0.000001  0.000000  0.000002 -0.000003
  1C   1dyz       0.000000 -0.000000 -0.000000 -0.000000 -0.000000  0.000001
  1C   1dx2y2    -0.000346 -0.000386 -0.000669  0.000601 -0.003301 -0.000532
  1C   1dxy       0.000062  0.001103 -0.000906  0.000446  0.003246 -0.003814
  2H   1s        -0.000199 -0.000263 -0.000798 -0.000229 -0.002597 -0.074418
  2H   2s        -0.000558 -0.000734  0.003978 -0.000598 -0.003813 -0.005598
  3H   1s         0.000176  0.000032 -0.000956 -0.000159 -0.000199 -0.069382
  3H   2s         0.001110  0.001542  0.004341  0.000567  0.008407 -0.012107
  4H   1s         0.000190 -0.000173 -0.000183 -0.000854 -0.006919 -0.073670
  4H   2s         0.000938  0.000146 -0.000081  0.002974  0.003598  0.005542
  5C   1s         0.000244  0.995321 -0.000105 -0.001728  0.118526  0.052313
  5C   2s         0.000205  0.038475 -0.000340 -0.000664 -0.226475 -0.101125
  5C   1pz        0.000000 -0.000000  0.000000 -0.000000  0.000028 -0.000013
  5C   1px       -0.000332  0.002027  0.000047  0.000496 -0.170136  0.136162
  5C   1py       -0.000255  0.001273  0.000025 -0.000432 -0.077434 -0.011919
  5C   3s         0.007975 -0.024973 -0.001095  0.004279 -0.070801 -0.085366
  5C   2pz       -0.000001 -0.000000  0.000000 -0.000000 -0.000003 -0.000007
  5C   2px        0.004626  0.002094 -0.001702 -0.004298  0.022724  0.047374
  5C   2py        0.005448  0.001346 -0.000760  0.000768  0.026095  0.013109
  5C   4s        -0.016919  0.012320 -0.039982 -0.033313 -0.063416 -0.082305
  5C   3pz       -0.000000  0.000001 -0.000002 -0.000002 -0.000002 -0.000012
  5C   3px        0.000834 -0.001470  0.009995  0.007487 -0.002965  0.030431
  5C   3py       -0.003537  0.005073 -0.005168 -0.004382 -0.010112 -0.001643
  5C   1dz2       0.000315 -0.001153 -0.000055  0.000683  0.015606  0.004177
  5C   1dxz       0.000000 -0.000001  0.000000  0.000000  0.000007 -0.000000
  5C   1dyz       0.000000 -0.000000  0.000000 -0.000000  0.000003 -0.000001
  5C   1dx2y2    -0.000792  0.001108 -0.000114 -0.000470 -0.016234  0.000912
  5C   1dxy      -0.000761  0.000659 -0.000005  0.001021 -0.018481  0.010081
  6H   1s        -0.000126 -0.000657 -0.000287 -0.000319 -0.027687 -0.033502
  6H   2s         0.001880  0.004687  0.000178 -0.000231  0.017717  0.002741
  7O   1s         0.995131 -0.000061 -0.000015 -0.000013  0.194316 -0.038031
  7O   2s         0.030271  0.000599 -0.000189 -0.000206 -0.426333  0.089197
  7O   1pz        0.000000 -0.000000 -0.000000  0.000000 -0.000025  0.000002
  7O   1px       -0.001971  0.000911  0.000032  0.000121  0.154268 -0.000389
  7O   1py       -0.000756  0.000399  0.000014  0.000054  0.063887 -0.014657
  7O   3s        -0.021891 -0.004855  0.001125  0.000678 -0.387380  0.070457
  7O   2pz       -0.000001 -0.000001  0.000000 -0.000000 -0.000008 -0.000001
  7O   2px        0.004389  0.003694 -0.000702 -0.000579  0.047773  0.010361
  7O   2py        0.001084  0.001565 -0.000332 -0.000889  0.016358 -0.000131
  7O   4s         0.008932  0.008207  0.003563  0.003853  0.021239 -0.007437
  7O   3pz        0.000000  0.000001  0.000001  0.000001  0.000001  0.000004
  7O   3px       -0.000742 -0.005646 -0.001465 -0.000931  0.004499 -0.006252
  7O   3py        0.000156 -0.002251  0.000092  0.000583  0.002014 -0.000338
  7O   1dz2      -0.000048  0.001011 -0.000060 -0.000249  0.003620  0.000814
  7O   1dxz       0.000000  0.000000 -0.000000 -0.000000  0.000002  0.000000
  7O   1dyz      -0.000000  0.000000  0.000000 -0.000000  0.000002 -0.000000
  7O   1dx2y2    -0.000096 -0.001034  0.000074 -0.000063 -0.008454 -0.001501
  7O   1dxy       0.000082 -0.001199  0.000048  0.000114 -0.008086  0.000536
                      6         7         8         9        10        11   
                  -0.65951  -0.58616  -0.49175  -0.48787  -0.43352  -0.41422
                   2.00000   2.00000   2.00000   2.00000   2.00000   2.00000
                  --------  --------  --------  --------  --------  --------
  0C   1s         0.132612  0.045459 -0.010531 -0.009003  0.018169  0.000006
  0C   2s        -0.263494 -0.090325  0.021519  0.021431 -0.038949 -0.000010
  0C   1pz       -0.000002  0.000004 -0.000010 -0.000111 -0.000089 -0.094102
  0C   1px        0.082135  0.073131 -0.059485 -0.353816 -0.246148  0.000058
  0C   1py       -0.004261  0.153257 -0.292830  0.047254 -0.016971 -0.000221
  0C   3s        -0.249841 -0.104252  0.055565  0.016675 -0.043117 -0.000042
  0C   2pz        0.000005  0.000002  0.000003 -0.000046 -0.000035 -0.046769
  0C   2px        0.038419  0.013632 -0.010220 -0.139781 -0.084841  0.000019
  0C   2py       -0.000379  0.053381 -0.106857  0.026040 -0.008252 -0.000104
  0C   4s         0.030378  0.025500  0.038597  0.024963  0.003665 -0.000128
  0C   3pz        0.000005  0.000003  0.000002 -0.000006 -0.000006 -0.000835
  0C   3px        0.005931  0.012162 -0.004289 -0.016601 -0.014229 -0.000020
  0C   3py        0.009024  0.004587 -0.006078  0.007184 -0.002402 -0.000032
  0C   1dz2       0.009884  0.004354 -0.002731 -0.003200 -0.002149 -0.000004
  0C   1dxz      -0.000004 -0.000001 -0.000002 -0.000003 -0.000003 -0.006487
  0C   1dyz       0.000002  0.000003 -0.000004 -0.000004 -0.000003 -0.002029
  0C   1dx2y2     0.005327  0.003992 -0.008506 -0.002294 -0.000941 -0.000014
  0C   1dxy       0.004778  0.007987 -0.002841 -0.012563 -0.008914  0.000009
  1C   1s        -0.057950 -0.094074  0.014862  0.028821  0.003582  0.000011
  1C   2s         0.116977  0.188018 -0.027833 -0.060267 -0.009115 -0.000028
  1C   1pz       -0.000001 -0.000055  0.000044 -0.000012  0.000001 -0.171817
  1C   1px        0.219086 -0.013035  0.238879  0.174619  0.191546  0.000022
  1C   1py       -0.022130  0.192609 -0.125405  0.208300  0.130751  0.000171
  1C   3s         0.108833  0.214020 -0.023752 -0.012371  0.021725  0.000011
  1C   2pz       -0.000004 -0.000022  0.000014 -0.000013 -0.000005 -0.086047
  1C   2px        0.049056  0.008129  0.086081  0.025475  0.046135 -0.000010
  1C   2py        0.001217  0.058602 -0.043239  0.041767  0.038562  0.000054
  1C   4s         0.053944 -0.052805 -0.021977 -0.007421 -0.018689  0.000148
  1C   3pz       -0.000002 -0.000002  0.000004  0.000008  0.000004 -0.008525
  1C   3px        0.048331 -0.007141  0.034382  0.019850  0.005053 -0.000034
  1C   3py       -0.007683  0.012370 -0.002149  0.004634  0.012360 -0.000007
  1C   1dz2      -0.003931 -0.005252  0.000527 -0.002104 -0.001916  0.000004
  1C   1dxz      -0.000006 -0.000000 -0.000006 -0.000003 -0.000002 -0.005921
  1C   1dyz      -0.000002 -0.000011  0.000005 -0.000008 -0.000007  0.007096
  1C   1dx2y2    -0.005643 -0.004843  0.002640  0.001278 -0.010035 -0.000018
  1C   1dxy      -0.013035  0.004617 -0.001314 -0.007632 -0.009162  0.000008
  2H   1s        -0.105133 -0.120410  0.176760  0.002813  0.010504  0.000143
  2H   2s        -0.033072 -0.057509  0.106574  0.006175  0.014614  0.000116
  3H   1s        -0.134654 -0.034359 -0.043613  0.199669  0.110887 -0.000108
  3H   2s        -0.038906 -0.020441 -0.025807  0.121610  0.092229 -0.000081
  4H   1s         0.045375  0.171195 -0.068177  0.094627  0.094543  0.000146
  4H   2s         0.009461  0.072599 -0.040475  0.073629  0.076566  0.000110
  5C   1s        -0.113876  0.084744  0.009490 -0.053200  0.010903  0.000014
  5C   2s         0.236342 -0.176219 -0.017167  0.122415 -0.036392 -0.000030
  5C   1pz        0.000032 -0.000012  0.000040 -0.000011  0.000067 -0.367410
  5C   1px       -0.177965  0.011468 -0.148427  0.111579 -0.273901  0.000025
  5C   1py       -0.005007  0.229064  0.298943  0.100142 -0.174045 -0.000075
  5C   3s         0.219773 -0.185930 -0.063295  0.143132 -0.012862 -0.000042
  5C   2pz        0.000009 -0.000005  0.000013 -0.000005  0.000026 -0.176823
  5C   2px       -0.038325  0.031960 -0.048492  0.063442 -0.074737  0.000012
  5C   2py       -0.015515  0.073438  0.089462  0.055050 -0.050619 -0.000020
  5C   4s        -0.089927  0.028619 -0.025997  0.003947  0.035680 -0.000012
  5C   3pz       -0.000003  0.000005 -0.000001 -0.000005  0.000002 -0.027075
  5C   3px        0.006959 -0.000403 -0.013507 -0.000208 -0.013037  0.000004
  5C   3py       -0.024964  0.016290  0.007020 -0.001292 -0.003778 -0.000004
  5C   1dz2      -0.005090  0.003792  0.003427 -0.002167  0.003581  0.000005
  5C   1dxz      -0.000000  0.000000 -0.000000 -0.000001  0.000004 -0.017364
  5C   1dyz       0.000001 -0.000001  0.000001 -0.000001  0.000003 -0.012828
  5C   1dx2y2    -0.009829  0.006662  0.002099 -0.005994 -0.020697 -0.000005
  5C   1dxy      -0.009276 -0.003912 -0.000038  0.003794 -0.013509 -0.000003
  6H   1s         0.097739 -0.178179 -0.148149 -0.003110  0.115572  0.000030
  6H   2s         0.026290 -0.083873 -0.093544  0.005951  0.097276  0.000037
  7O   1s         0.064951 -0.036749 -0.010634  0.066624 -0.057633  0.000004
  7O   2s        -0.152438  0.087445  0.022093 -0.150678  0.127149 -0.000009
  7O   1pz        0.000010 -0.000010  0.000019  0.000049 -0.000046 -0.446044
  7O   1px       -0.061972  0.027072 -0.045721 -0.276877  0.412356 -0.000060
  7O   1py       -0.001062  0.116997  0.215060 -0.061132  0.147096 -0.000087
  7O   3s        -0.177189  0.100443  0.052350 -0.278323  0.253195 -0.000025
  7O   2pz        0.000005 -0.000006  0.000013  0.000018 -0.000017 -0.257762
  7O   2px       -0.031565  0.015904 -0.037952 -0.104194  0.172651 -0.000030
  7O   2py       -0.000298  0.057889  0.107374 -0.013437  0.059705 -0.000046
  7O   4s        -0.013453  0.000604  0.022608 -0.075300  0.074682 -0.000008
  7O   3pz       -0.000001 -0.000003  0.000000  0.000002 -0.000004 -0.023715
  7O   3px        0.008086 -0.000172 -0.001821 -0.007744  0.025068 -0.000003
  7O   3py        0.005018 -0.001474  0.005233 -0.000374  0.012177 -0.000002
  7O   1dz2      -0.003569  0.002548  0.000273 -0.007027  0.007485 -0.000009
  7O   1dxz      -0.000002  0.000001 -0.000003 -0.000004  0.000002  0.028951
  7O   1dyz      -0.000000  0.000002  0.000002 -0.000001  0.000000  0.011538
  7O   1dx2y2     0.004410  0.003636  0.012050  0.008899 -0.010905  0.000001
  7O   1dxy       0.001243 -0.009625 -0.012657  0.003938 -0.007389  0.000006
                     12        13        14        15        16        17   
                  -0.40548  -0.30680  -0.27114  -0.07735   0.00721   0.01937
                   2.00000   2.00000   2.00000   0.00000   0.00000   0.00000
                  --------  --------  --------  --------  --------  --------
  0C   1s         0.010470 -0.000019  0.007140 -0.000009  0.061287  0.000037
  0C   2s        -0.021385  0.000041 -0.011755  0.000024 -0.138564 -0.000065
  0C   1pz        0.000076 -0.378338 -0.000080 -0.367194 -0.000065  0.096280
  0C   1px        0.059527  0.000156 -0.066383  0.000100  0.119306  0.000184
  0C   1py       -0.316450  0.000012 -0.017920 -0.000013  0.049973 -0.000070
  0C   3s        -0.034937  0.000065 -0.086043  0.000029 -0.417157 -0.000411
  0C   2pz        0.000037 -0.242534 -0.000070 -0.380856 -0.000086  0.174699
  0C   2px        0.028724  0.000098 -0.080437  0.000060  0.203272  0.000169
  0C   2py       -0.137235 -0.000009 -0.019882  0.000031  0.081110  0.000001
  0C   4s         0.012301  0.000122 -0.324536 -0.000568 -1.937454 -0.001342
  0C   3pz        0.000001 -0.050416 -0.000049 -0.305527 -0.000793  1.022575
  0C   3px        0.015896  0.000045 -0.081678 -0.000061 -1.163507 -0.001429
  0C   3py       -0.032564  0.000008 -0.018372 -0.000045 -0.690282  0.000039
  0C   1dz2      -0.000504 -0.000009  0.000104  0.000006  0.006976 -0.000010
  0C   1dxz      -0.000002 -0.014599 -0.000001  0.012974  0.000010 -0.017759
  0C   1dyz       0.000000 -0.006586 -0.000002  0.003613  0.000013 -0.016684
  0C   1dx2y2    -0.024075  0.000005  0.006510 -0.000006  0.005960  0.000007
  0C   1dxy       0.013892  0.000003 -0.005180  0.000000  0.002797  0.000003
  1C   1s        -0.014558  0.000035 -0.038640 -0.000016  0.006229  0.000066
  1C   2s         0.025393 -0.000076  0.078259  0.000034 -0.018724 -0.000142
  1C   1pz        0.000071 -0.367259 -0.000007  0.216125  0.000204 -0.330788
  1C   1px       -0.002971 -0.000000  0.192387 -0.000025 -0.022886 -0.000030
  1C   1py        0.287240 -0.000049 -0.109731  0.000034 -0.080257 -0.000220
  1C   3s         0.070992 -0.000122  0.277953  0.000087 -0.123342 -0.000517
  1C   2pz        0.000034 -0.227472 -0.000018  0.244938  0.000251 -0.425542
  1C   2px       -0.014867  0.000014  0.073475 -0.000028  0.053630  0.000067
  1C   2py        0.108404  0.000010 -0.129303 -0.000032 -0.008954 -0.000366
  1C   4s        -0.027273 -0.000145  0.470499  0.000885 -0.978239 -0.004940
  1C   3pz        0.000005 -0.039524 -0.000000  0.179116  0.000640 -1.319458
  1C   3px       -0.021550  0.000034 -0.059191 -0.000103 -1.586774 -0.001615
  1C   3py        0.037527  0.000026 -0.110299 -0.000156  0.952834  0.001620
  1C   1dz2      -0.003047  0.000012  0.000523  0.000005  0.007346 -0.000006
  1C   1dxz       0.000001  0.015387  0.000001  0.029544 -0.000005  0.004947
  1C   1dyz      -0.000016  0.009098  0.000004 -0.001693  0.000015 -0.017261
  1C   1dx2y2    -0.024022 -0.000004  0.003446 -0.000002 -0.000335 -0.000010
  1C   1dxy       0.012299 -0.000000 -0.005422 -0.000000 -0.004440 -0.000005
  2H   1s         0.211809 -0.000012 -0.016559 -0.000003 -0.005414  0.000017
  2H   2s         0.178329 -0.000020 -0.031357  0.000030  0.040713  0.000182
  3H   1s        -0.166487 -0.000017  0.041571 -0.000021  0.009371  0.000020
  3H   2s        -0.132520 -0.000012  0.041237 -0.000059  0.067214  0.000095
  4H   1s         0.216522  0.000010 -0.036311 -0.000034 -0.022618  0.000126
  4H   2s         0.171885 -0.000032 -0.037845  0.000002 -0.111247  0.000403
  5C   1s         0.025493 -0.000001 -0.000418  0.000018  0.018322 -0.000028
  5C   2s        -0.056219  0.000001  0.012628 -0.000047 -0.056313  0.000068
  5C   1pz        0.000210  0.037222  0.000011  0.329065 -0.000214  0.290958
  5C   1px        0.165179  0.000003 -0.057983  0.000112  0.009347 -0.000022
  5C   1py       -0.115819  0.000004  0.128409 -0.000026  0.079451 -0.000061
  5C   3s        -0.068149 -0.000006 -0.019975 -0.000086 -0.042370  0.000063
  5C   2pz        0.000107  0.012949 -0.000007  0.317646 -0.000287  0.408961
  5C   2px        0.066340 -0.000020  0.060647  0.000096  0.031710 -0.000048
  5C   2py       -0.034378 -0.000017  0.022899  0.000002  0.048016 -0.000173
  5C   4s         0.033299  0.000003 -0.163340 -0.000235  4.629475  0.006899
  5C   3pz        0.000022  0.013502 -0.000023  0.154962 -0.000379  1.017162
  5C   3px        0.005232 -0.000008  0.066476  0.000073 -1.139667 -0.002439
  5C   3py       -0.001372 -0.000000  0.016351 -0.000053  0.233870  0.001132
  5C   1dz2      -0.001842 -0.000007  0.001783  0.000009  0.004115  0.000001
  5C   1dxz       0.000013  0.027365 -0.000007 -0.030536  0.000004 -0.004132
  5C   1dyz       0.000008  0.000617  0.000006 -0.002509  0.000015 -0.024624
  5C   1dx2y2    -0.000400  0.000003  0.038851 -0.000005  0.009718  0.000009
  5C   1dxy      -0.002766  0.000003 -0.034647  0.000003  0.002165  0.000002
  6H   1s         0.037114  0.000002 -0.177242  0.000009 -0.020358 -0.000035
  6H   2s         0.047989 -0.000008 -0.243519  0.000036 -0.120483 -0.000238
  7O   1s         0.008699 -0.000001 -0.001027 -0.000002 -0.000160 -0.000010
  7O   2s        -0.018382  0.000000  0.006101  0.000007 -0.005302  0.000012
  7O   1pz        0.000306  0.274337 -0.000042 -0.340389  0.000159 -0.209872
  7O   1px        0.001054  0.000024  0.226340 -0.000090 -0.015606 -0.000028
  7O   1py       -0.172459  0.000043 -0.532488  0.000026 -0.034974 -0.000041
  7O   3s        -0.049125  0.000015 -0.023818 -0.000004  0.029611  0.000172
  7O   2pz        0.000176  0.180432 -0.000031 -0.275385  0.000141 -0.182179
  7O   2px        0.014281  0.000012  0.159266 -0.000064 -0.011010 -0.000118
  7O   2py       -0.091891  0.000027 -0.345519  0.000019 -0.029893 -0.000004
  7O   4s        -0.016672  0.000009 -0.021583 -0.000004 -0.373484 -0.000053
  7O   3pz        0.000016  0.042039  0.000002 -0.178592  0.000165 -0.324997
  7O   3px       -0.003386  0.000002  0.029677 -0.000024  0.191737  0.000295
  7O   3py       -0.011200 -0.000001 -0.083241  0.000031  0.069395 -0.000193
  7O   1dz2      -0.001437  0.000004  0.000445  0.000000  0.001577 -0.000001
  7O   1dxz      -0.000019 -0.012274  0.000002  0.000924  0.000001 -0.001036
  7O   1dyz      -0.000009 -0.006007 -0.000002  0.001836  0.000004 -0.005989
  7O   1dx2y2    -0.007108 -0.000000 -0.013538 -0.000000  0.000637  0.000002
  7O   1dxy       0.008180 -0.000002  0.013474  0.000001 -0.001626  0.000004
                     18        19        20        21        22        23   
                   0.02118   0.03362   0.06217   0.06223   0.06832   0.09123
                   0.00000   0.00000   0.00000   0.00000   0.00000   0.00000
                  --------  --------  --------  --------  --------  --------
  0C   1s         0.002846  0.026886 -0.000804 -0.010295 -0.000164 -0.024847
  0C   2s         0.006654 -0.057295  0.001711  0.021594  0.005523  0.037372
  0C   1pz        0.000073 -0.000029  0.214301 -0.016667 -0.000132  0.000031
  0C   1px       -0.063181  0.033886  0.002460  0.031012  0.084709  0.042197
  0C   1py        0.139754  0.006913 -0.004511 -0.056871 -0.174738  0.017621
  0C   3s        -0.076361 -0.233354  0.002498  0.034317  0.019117  0.295386
  0C   2pz        0.000138 -0.000076  0.330559 -0.025765 -0.000200  0.000015
  0C   2px       -0.122367 -0.001798 -0.014434 -0.184925  0.162387  0.118393
  0C   2py        0.163939  0.023027 -0.011002 -0.141505 -0.162886 -0.040821
  0C   4s        -3.602593 -8.461782 -0.616788 -7.883109  2.684995 -0.821329
  0C   3pz        0.000751 -0.001146 -0.176573  0.012988  0.000144 -0.001002
  0C   3px       -0.661933 -2.688023 -0.218160 -2.783121 -0.441043 -0.899312
  0C   3py       -0.920601 -0.984582 -0.043985 -0.573848  2.358596 -1.191875
  0C   1dz2       0.001479 -0.002862  0.000334  0.004333 -0.002271 -0.016678
  0C   1dxz      -0.000019  0.000008  0.000373 -0.000032  0.000003  0.000021
  0C   1dyz      -0.000014  0.000008 -0.003486  0.000272  0.000000  0.000006
  0C   1dx2y2     0.001177  0.001664  0.000221  0.002834 -0.001509  0.012852
  0C   1dxy       0.004134  0.010116  0.001126  0.014479 -0.001896  0.002127
  1C   1s        -0.036863 -0.029929 -0.000896 -0.011529 -0.019235 -0.012997
  1C   2s         0.082470  0.076123  0.001644  0.021041  0.046906  0.013716
  1C   1pz       -0.000353  0.000091 -0.019988  0.001515  0.000040  0.000075
  1C   1px        0.020738 -0.030553 -0.004139 -0.053365  0.051361 -0.012777
  1C   1py        0.111487  0.076138  0.003760  0.049504  0.016209 -0.136389
  1C   3s         0.352038  0.200077  0.023192  0.297779  0.119072  0.207310
  1C   2pz       -0.000489  0.000137 -0.035853  0.002657  0.000088  0.000224
  1C   2px        0.005869 -0.086059 -0.004412 -0.057640  0.140453  0.000230
  1C   2py        0.129345  0.091817 -0.008680 -0.106112 -0.026133 -0.154482
  1C   4s         8.362403  7.822832  1.061254 13.500496  4.391836  3.375384
  1C   3pz       -0.001627 -0.000125 -0.901819  0.069736  0.000873 -0.000010
  1C   3px        0.133255 -2.130998 -0.025052 -0.348193  3.825982  1.271196
  1C   3py       -1.559987 -1.497878 -0.257319 -3.283165 -1.686293  1.599485
  1C   1dz2      -0.000844 -0.006964  0.000308  0.004173 -0.003991 -0.017234
  1C   1dxz       0.000005 -0.000000 -0.003132  0.000244 -0.000001 -0.000003
  1C   1dyz      -0.000021 -0.000002 -0.018080  0.001407  0.000012  0.000014
  1C   1dx2y2     0.010628 -0.007635  0.000008  0.000064 -0.008216  0.001512
  1C   1dxy       0.000445 -0.004993  0.000659  0.008369  0.008567  0.006373
  2H   1s         0.004824  0.013840 -0.001831 -0.023543 -0.001999 -0.015630
  2H   2s         0.026580  0.174862 -0.014408 -0.187813  0.091385  0.102955
  3H   1s        -0.008303 -0.010253 -0.003267 -0.042206  0.021288  0.027515
  3H   2s        -0.027328  0.036911 -0.017381 -0.224777  0.091504  0.346546
  4H   1s        -0.042790  0.021436 -0.000515 -0.007656  0.019365  0.038913
  4H   2s        -0.209168  0.054568 -0.002983 -0.044211  0.111202  0.250478
  5C   1s         0.027101 -0.014644 -0.001236 -0.016069  0.031997 -0.006743
  5C   2s        -0.054103  0.068660  0.001204  0.015839 -0.066104  0.002164
  5C   1pz        0.000245 -0.000026  0.230148 -0.017931 -0.000195 -0.000244
  5C   1px        0.016474 -0.031476  0.004620  0.059070  0.032330 -0.021237
  5C   1py        0.133402 -0.100832 -0.007867 -0.102370  0.070307  0.018326
  5C   3s        -0.202700 -0.114033  0.023099  0.299728 -0.369535  0.053099
  5C   2pz        0.000344 -0.000041  0.333470 -0.026035 -0.000315 -0.000380
  5C   2px        0.134370 -0.236592  0.029503  0.375867  0.046756 -0.142993
  5C   2py        0.170593 -0.143094 -0.004479 -0.058967  0.039597 -0.003228
  5C   4s        -4.767463 -0.862269 -0.342462 -4.305175 -7.541007 -3.183186
  5C   3pz        0.000760 -0.000384 -0.046593  0.003153 -0.000515  0.001194
  5C   3px        1.608532 -0.713950  0.193485  2.463046  1.236931  0.796107
  5C   3py       -1.274862  0.256608  0.028608  0.399538 -2.615982 -1.677259
  5C   1dz2       0.000221 -0.007293  0.000537  0.006945 -0.005499 -0.014093
  5C   1dxz      -0.000003 -0.000001 -0.001042  0.000085 -0.000000 -0.000006
  5C   1dyz      -0.000023  0.000006 -0.004695  0.000363  0.000005  0.000003
  5C   1dx2y2    -0.003744 -0.004493 -0.000717 -0.009183 -0.004442 -0.000055
  5C   1dxy      -0.003965  0.002836 -0.000142 -0.001785 -0.003875 -0.006250
  6H   1s         0.024623  0.025792 -0.000992 -0.012911  0.036391  0.014272
  6H   2s         0.156951  0.050164 -0.001887 -0.026578  0.175614  0.242227
  7O   1s         0.002928 -0.026449  0.002542  0.032576 -0.006209  0.002045
  7O   2s         0.001550  0.077652 -0.007059 -0.090502  0.018575 -0.010656
  7O   1pz       -0.000186  0.000038 -0.047538  0.003694  0.000048 -0.000011
  7O   1px        0.000874  0.017510 -0.001759 -0.022208 -0.027674 -0.023764
  7O   1py        0.003807  0.042168  0.004005  0.051295  0.045422 -0.012281
  7O   3s        -0.095771  0.173078 -0.019597 -0.250736  0.027370  0.033122
  7O   2pz       -0.000175  0.000026 -0.075923  0.005881  0.000071  0.000067
  7O   2px        0.047748 -0.073765  0.006093  0.078678 -0.052637 -0.062697
  7O   2py       -0.035676  0.001252  0.007819  0.100832 -0.005372 -0.052405
  7O   4s         0.076719  1.132536 -0.104737 -1.346430  0.481509  0.477390
  7O   3pz       -0.000252  0.000224 -0.056975  0.004482  0.000112 -0.000119
  7O   3px       -0.128698 -0.121833  0.007585  0.096579 -0.004336 -0.072449
  7O   3py        0.264967 -0.051028  0.005485  0.065914  0.252906  0.146459
  7O   1dz2      -0.000094 -0.003879  0.000360  0.004647 -0.003853 -0.007488
  7O   1dxz      -0.000001 -0.000002 -0.005441  0.000426  0.000002  0.000007
  7O   1dyz      -0.000005 -0.000000 -0.005256  0.000409  0.000005  0.000005
  7O   1dx2y2     0.002081  0.003167 -0.000298 -0.003850  0.003403 -0.000223
  7O   1dxy      -0.004857  0.006187 -0.000171 -0.002124 -0.003700 -0.000233
                     24        25        26        27        28        29   
                   0.09373   0.11537   0.12885   0.13569   0.16048   0.19005
                   0.00000   0.00000   0.00000   0.00000   0.00000   0.00000
                  --------  --------  --------  --------  --------  --------
  0C   1s        -0.000034 -0.019990  0.000004 -0.040664  0.033715  0.043629
  0C   2s         0.000042  0.023920 -0.000008  0.063596 -0.045571 -0.062576
  0C   1pz       -0.123038 -0.000063 -0.217455  0.000141  0.000065 -0.000021
  0C   1px        0.000069  0.025070 -0.000056 -0.101217  0.043180  0.120591
  0C   1py        0.000009 -0.048574 -0.000025 -0.053702  0.014304 -0.108355
  0C   3s         0.000522  0.361120 -0.000063  0.466793 -0.411479 -0.810963
  0C   2pz       -0.208955 -0.000085 -0.414727  0.000268  0.000188 -0.000002
  0C   2px        0.000158 -0.036752 -0.000134 -0.531283  0.151530  0.609480
  0C   2py        0.000013 -0.156697 -0.000162 -0.260653  0.012680 -0.392270
  0C   4s         0.003461 15.871584 -0.020153-18.598208 31.706171-15.464795
  0C   3pz        0.837486  0.002553  1.968183 -0.002662  0.001740 -0.001619
  0C   3px       -0.000238  1.741994 -0.004164 -4.485887  7.301273 -2.621071
  0C   3py       -0.000193  3.066606 -0.003103 -2.230162  4.016634 -2.322734
  0C   1dz2      -0.000016  0.005107  0.000017  0.014505  0.015274 -0.009812
  0C   1dxz      -0.009215  0.000008  0.014687 -0.000014 -0.000006  0.000019
  0C   1dyz       0.001786 -0.000006  0.004534 -0.000007 -0.000008 -0.000006
  0C   1dx2y2     0.000012  0.019389 -0.000003  0.003869  0.005120  0.020664
  0C   1dxy       0.000003 -0.007927  0.000000  0.002908 -0.000767 -0.029931
  1C   1s        -0.000015 -0.007508 -0.000001  0.032523 -0.001182  0.054997
  1C   2s         0.000013  0.003676  0.000031 -0.050266  0.009686 -0.047203
  1C   1pz       -0.029326  0.000146  0.331331 -0.000247 -0.000093  0.000066
  1C   1px        0.000014  0.039559 -0.000010  0.009583  0.037344 -0.030019
  1C   1py       -0.000086 -0.055877 -0.000055 -0.066096 -0.030058 -0.181472
  1C   3s         0.000227  0.158903 -0.000066 -0.128129 -0.079570 -1.303330
  1C   2pz       -0.041788  0.000217  0.579245 -0.000672 -0.000133  0.000234
  1C   2px        0.000122  0.196729 -0.000129 -0.097200  0.218923 -0.254728
  1C   2py       -0.000045 -0.132442  0.000004 -0.190201 -0.085642 -0.372775
  1C   4s        -0.001229 -7.195955  0.038341 37.075208 -7.370126 16.307815
  1C   3pz        0.782024 -0.000671 -2.956087 -0.000128  0.002206 -0.000011
  1C   3px        0.002619 10.342776 -0.002401 -0.412076 13.850883 -4.688970
  1C   3py        0.001767  0.195633 -0.004824 -4.894862 -0.292163 -3.060585
  1C   1dz2      -0.000013  0.005533  0.000016  0.012033  0.000206 -0.003064
  1C   1dxz       0.009863  0.000001  0.001642 -0.000006 -0.000002 -0.000003
  1C   1dyz       0.002880 -0.000001  0.004034 -0.000001 -0.000005 -0.000007
  1C   1dx2y2     0.000003 -0.004576 -0.000002  0.002805 -0.005856 -0.040148
  1C   1dxy       0.000005  0.024030 -0.000015 -0.001579 -0.000152  0.006421
  2H   1s        -0.000019 -0.087924 -0.000029 -0.076922 -0.025282 -0.049953
  2H   2s         0.000066 -0.542364 -0.000311 -0.721136 -0.391830 -0.227919
  3H   1s         0.000004  0.043238 -0.000053 -0.079225  0.001674  0.162866
  3H   2s         0.000138  0.035623 -0.000257 -0.622236 -0.183882  1.688553
  4H   1s         0.000012  0.024037 -0.000035  0.012190  0.016120  0.173144
  4H   2s         0.000135  0.068914 -0.000495 -0.268717  0.139857  1.389022
  5C   1s        -0.000007  0.049109 -0.000011 -0.002403 -0.007276  0.006417
  5C   2s         0.000001 -0.094954  0.000029  0.039176  0.018658 -0.046723
  5C   1pz        0.186297 -0.000103 -0.198285  0.000129  0.000082 -0.000049
  5C   1px        0.000023  0.077881 -0.000037 -0.031136  0.010482 -0.010649
  5C   1py        0.000020 -0.018273 -0.000069 -0.051167 -0.047862 -0.093239
  5C   3s         0.000059 -0.632644  0.000183 -0.191817  0.070900  0.112242
  5C   2pz        0.237523 -0.000155 -0.275221  0.000250  0.000111  0.000032
  5C   2px       -0.000076  0.207525 -0.000081  0.050784  0.008946 -0.369589
  5C   2py       -0.000025 -0.090861 -0.000167 -0.233244 -0.085719 -0.145675
  5C   4s        -0.002621 -8.964875 -0.018213-18.595206-24.712915 -1.096693
  5C   3pz       -1.938396 -0.000128  1.177603 -0.001328 -0.001156 -0.000434
  5C   3px        0.000434 -1.144524  0.005838  4.238291  5.854523  1.495659
  5C   3py       -0.001563 -2.242056 -0.003075 -3.666999 -4.123169  0.414949
  5C   1dz2      -0.000014 -0.000044 -0.000005  0.003969 -0.020961 -0.001036
  5C   1dxz       0.001363 -0.000004 -0.005301  0.000007 -0.000007 -0.000005
  5C   1dyz       0.007301  0.000008  0.009891 -0.000012 -0.000003 -0.000001
  5C   1dx2y2    -0.000004  0.005144  0.000002 -0.003029  0.003266  0.025931
  5C   1dxy      -0.000008 -0.002156  0.000008  0.001769  0.006672  0.022299
  6H   1s         0.000025  0.027525 -0.000012 -0.010107  0.021738 -0.082033
  6H   2s         0.000225  0.058264 -0.000059 -0.269067  0.409211 -0.486284
  7O   1s         0.000006 -0.010857 -0.000006 -0.012642 -0.007347 -0.017339
  7O   2s        -0.000024  0.032067  0.000026  0.051032  0.025824  0.028915
  7O   1pz        0.014453  0.000068  0.117040 -0.000041 -0.000074  0.000103
  7O   1px       -0.000023  0.028562 -0.000036  0.025025 -0.054393 -0.097354
  7O   1py        0.000001 -0.086382  0.000096  0.079906 -0.013285  0.005209
  7O   3s         0.000027  0.049517  0.000001 -0.014573  0.049754  0.296836
  7O   2pz       -0.057042  0.000088  0.139582 -0.000075 -0.000071  0.000135
  7O   2px       -0.000067 -0.040763  0.000001  0.025961 -0.051372 -0.117737
  7O   2py       -0.000025 -0.040013  0.000067  0.075118 -0.019828 -0.052167
  7O   4s         0.000219  0.483556  0.000728  1.397676  0.831300 -0.272923
  7O   3pz        0.318651 -0.000052 -0.026396  0.000097 -0.000054 -0.000218
  7O   3px        0.000013  0.414229 -0.000344 -0.480835 -0.198757 -0.147579
  7O   3py        0.000098 -0.198308  0.000197  0.061298  0.058833  0.229021
  7O   1dz2      -0.000005 -0.001031 -0.000004  0.001033 -0.010791  0.003705
  7O   1dxz      -0.009248  0.000001  0.005732 -0.000003 -0.000004 -0.000001
[...]
  0-1A  -> 44-1A   11.681233   94215.5   106.1   0.009885286   0.00637   0.05898   0.05373  -0.00008
  0-1A  -> 45-1A   11.683794   94236.2   106.1   0.001350376   0.00087   0.00032   0.00023   0.02949
  0-1A  -> 46-1A   11.751524   94782.4   105.5   0.057618676   0.03732   0.00008   0.00004  -0.19320
  0-1A  -> 47-1A   11.836396   95467.0   104.7   0.074802184   0.04881  -0.21589  -0.04690  -0.00004
  0-1A  -> 48-1A   11.857227   95635.0   104.6   0.001546638   0.00101  -0.03095   0.00730   0.00008
  0-1A  -> 49-1A   12.062320   97289.2   102.8   0.092222433   0.06132   0.24745  -0.00956  -0.00028

------------------------------------------------------------------------------------------
                     CD SPECTRUM VIA TRANSITION ELECTRIC DIPOLE MOMENTS    
------------------------------------------------------------------------------------------
     Transition      Energy     Energy  Wavelength    R        MX        MY        MZ   
                      (eV)      (cm-1)    (nm)   (1e40*cgs)   (au)      (au)      (au)  
------------------------------------------------------------------------------------------
  0-1A  ->  1-1A    3.698419   29829.8   335.2   -0.02514  -0.37904  -0.07962   0.00006
  0-1A  ->  2-1A    6.611135   53322.4   187.5    1.43848  -0.00232  -0.00119   0.00303
  0-1A  ->  3-1A    6.620924   53401.4   187.3   -1.59467  -0.41648  -0.22004  -0.00002
  0-1A  ->  4-1A    6.968005   56200.8   177.9    0.22994  -0.00046  -0.00013   0.06795
  0-1A  ->  5-1A    7.128539   57495.6   173.9    0.04736   0.00011   0.00006  -0.02089
  0-1A  ->  6-1A    7.369772   59441.2   168.2   -0.02443  -0.00003  -0.00008   0.34782
  0-1A  ->  7-1A    7.505114   60532.8   165.2   -0.08960  -0.43119  -0.01042  -0.00015
  0-1A  ->  8-1A    7.556521   60947.5   164.1    0.01483  -0.02674   0.24709  -0.00005
  0-1A  ->  9-1A    7.910932   63806.0   156.7   -0.00024   0.00771   0.00376   0.00002
  0-1A  -> 10-1A    8.091522   65262.5   153.2   -0.02601   0.04860   0.02931  -0.00041
  0-1A  -> 11-1A    8.121802   65506.8   152.7    0.00367  -0.00005   0.00009  -0.22973
  0-1A  -> 12-1A    8.197759   66119.4   151.2    0.00386  -0.12221   0.07116   0.00015
  0-1A  -> 13-1A    8.343053   67291.3   148.6    0.09883   0.00009   0.00030  -0.03839
  0-1A  -> 14-1A    8.380785   67595.6   147.9   -0.09498   0.03925   0.22451   0.00012
  0-1A  -> 15-1A    8.486685   68449.7   146.1    0.02453  -0.00005   0.00002  -0.10198
  0-1A  -> 16-1A    8.962593   72288.2   138.3    0.00211   0.00011   0.00007   0.14717
  0-1A  -> 17-1A    9.036909   72887.6   137.2   -0.01105  -0.00499   0.10161  -0.00014
  0-1A  -> 18-1A    9.109653   73474.3   136.1   -0.07589   0.00008   0.00084   0.00951
  0-1A  -> 19-1A    9.128154   73623.5   135.8    0.07475   0.03026   0.18293   0.00002
  0-1A  -> 20-1A    9.272176   74785.1   133.7   -0.01617   0.00522   0.03512  -0.00033
  0-1A  -> 21-1A    9.326676   75224.7   132.9   -0.05050   0.00001   0.00017   0.16248
  0-1A  -> 22-1A    9.652359   77851.5   128.4    0.04738   0.45126  -0.52163   0.00011
  0-1A  -> 23-1A    9.680507   78078.6   128.1    0.00553  -0.00007   0.00016   0.01175
  0-1A  -> 24-1A    9.744023   78590.9   127.2    0.01769   0.09011   0.50464   0.00004
  0-1A  -> 25-1A    9.852931   79469.3   125.8    0.00661   0.01437  -0.59588  -0.00010
  0-1A  -> 26-1A    9.949944   80251.7   124.6    0.01152   0.19181   0.02918   0.00006
  0-1A  -> 27-1A   10.057302   81117.6   123.3    0.00372   0.00003  -0.00010  -0.09207
  0-1A  -> 28-1A   10.229892   82509.7   121.2   -0.00909   0.00011   0.00003  -0.05161
  0-1A  -> 29-1A   10.282057   82930.4   120.6    0.13325  -0.00071  -0.00025  -0.42798
  0-1A  -> 30-1A   10.374656   83677.3   119.5   -0.09649  -0.39586  -0.13493   0.00080
  0-1A  -> 31-1A   10.497807   84670.5   118.1   -0.00402  -0.04452  -0.10431   0.00005
  0-1A  -> 32-1A   10.677123   86116.8   116.1    0.03686  -0.00306   0.04780  -0.00014
  0-1A  -> 33-1A   10.709123   86374.9   115.8   -0.07068  -0.00004   0.00009   0.17345
  0-1A  -> 34-1A   10.848864   87502.0   114.3   -0.00231  -0.00002  -0.00002  -0.01117
  0-1A  -> 35-1A   10.939696   88234.6   113.3    0.00333  -0.06213   0.00408  -0.00010
  0-1A  -> 36-1A   11.093739   89477.1   111.8   -0.02639  -0.17936   0.19285   0.00016
  0-1A  -> 37-1A   11.125623   89734.2   111.4   -0.21150  -0.00091   0.00139  -0.11569
  0-1A  -> 38-1A   11.131241   89779.5   111.4    0.27404   0.18679  -0.36841  -0.00081
  0-1A  -> 39-1A   11.224837   90534.4   110.5    0.03981  -0.00045   0.00039  -0.03946
  0-1A  -> 40-1A   11.250917   90744.8   110.2   -0.10581   0.00033  -0.00074   0.26132
  0-1A  -> 41-1A   11.288146   91045.0   109.8    0.02434   0.02498   0.13504   0.00005
  0-1A  -> 42-1A   11.469500   92507.8   108.1    0.00045   0.00005   0.00007  -0.00887
  0-1A  -> 43-1A   11.531969   93011.6   107.5   -0.00416   0.00001  -0.00002   0.03048
  0-1A  -> 44-1A   11.681233   94215.5   106.1   -0.21495  -0.00098  -0.00058  -0.17422
  0-1A  -> 45-1A   11.683794   94236.2   106.1    0.22214   0.17922   0.12116  -0.00052
  0-1A  -> 46-1A   11.751524   94782.4   105.5    0.02605  -0.01614  -0.09567  -0.00017
  0-1A  -> 47-1A   11.836396   95467.0   104.7   -0.00675   0.00001  -0.00011   0.16586
  0-1A  -> 48-1A   11.857227   95635.0   104.6   -0.05336   0.00009   0.00003  -0.46228
  0-1A  -> 49-1A   12.062320   97289.2   102.8   -0.00584   0.00003   0.00031   0.04028

------------------------------------------------------------------------------------------
                     CD SPECTRUM VIA TRANSITION VELOCITY DIPOLE MOMENTS    
------------------------------------------------------------------------------------------
     Transition      Energy     Energy  Wavelength    R        MX        MY        MZ   
                      (eV)      (cm-1)    (nm)   (1e40*cgs)   (au)      (au)      (au)  
------------------------------------------------------------------------------------------
  0-1A  ->  1-1A    3.698419   29829.8   335.2    0.00961  -0.37904  -0.07962   0.00006
  0-1A  ->  2-1A    6.611135   53322.4   187.5    0.31792  -0.00232  -0.00119   0.00303
  0-1A  ->  3-1A    6.620924   53401.4   187.3   -0.35028  -0.41648  -0.22004  -0.00002
  0-1A  ->  4-1A    6.968005   56200.8   177.9    0.06307  -0.00046  -0.00013   0.06795
  0-1A  ->  5-1A    7.128539   57495.6   173.9    0.02282   0.00011   0.00006  -0.02089
  0-1A  ->  6-1A    7.369772   59441.2   168.2   -0.02029  -0.00003  -0.00008   0.34782
  0-1A  ->  7-1A    7.505114   60532.8   165.2   -0.02951  -0.43119  -0.01042  -0.00015
  0-1A  ->  8-1A    7.556521   60947.5   164.1    0.00698  -0.02674   0.24709  -0.00005
  0-1A  ->  9-1A    7.910932   63806.0   156.7    0.00046   0.00771   0.00376   0.00002
  0-1A  -> 10-1A    8.091522   65262.5   153.2   -0.02511   0.04860   0.02931  -0.00041
  0-1A  -> 11-1A    8.121802   65506.8   152.7    0.01659  -0.00005   0.00009  -0.22973
  0-1A  -> 12-1A    8.197759   66119.4   151.2    0.00546  -0.12221   0.07116   0.00015
  0-1A  -> 13-1A    8.343053   67291.3   148.6    0.05783   0.00009   0.00030  -0.03839
  0-1A  -> 14-1A    8.380785   67595.6   147.9   -0.04648   0.03925   0.22451   0.00012
  0-1A  -> 15-1A    8.486685   68449.7   146.1    0.01161  -0.00005   0.00002  -0.10198
  0-1A  -> 16-1A    8.962593   72288.2   138.3    0.00285   0.00011   0.00007   0.14717
  0-1A  -> 17-1A    9.036909   72887.6   137.2   -0.00871  -0.00499   0.10161  -0.00014
  0-1A  -> 18-1A    9.109653   73474.3   136.1   -0.01079   0.00008   0.00084   0.00951
  0-1A  -> 19-1A    9.128154   73623.5   135.8   -0.00232   0.03026   0.18293   0.00002
  0-1A  -> 20-1A    9.272176   74785.1   133.7   -0.01352   0.00522   0.03512  -0.00033
  0-1A  -> 21-1A    9.326676   75224.7   132.9   -0.02137   0.00001   0.00017   0.16248
  0-1A  -> 22-1A    9.652359   77851.5   128.4    0.02244   0.45126  -0.52163   0.00011
  0-1A  -> 23-1A    9.680507   78078.6   128.1    0.01021  -0.00007   0.00016   0.01175
  0-1A  -> 24-1A    9.744023   78590.9   127.2    0.00783   0.09011   0.50464   0.00004
  0-1A  -> 25-1A    9.852931   79469.3   125.8    0.01415   0.01437  -0.59588  -0.00010
  0-1A  -> 26-1A    9.949944   80251.7   124.6   -0.00763   0.19181   0.02918   0.00006
  0-1A  -> 27-1A   10.057302   81117.6   123.3    0.00625   0.00003  -0.00010  -0.09207
  0-1A  -> 28-1A   10.229892   82509.7   121.2    0.00104   0.00011   0.00003  -0.05161
  0-1A  -> 29-1A   10.282057   82930.4   120.6    0.09198  -0.00071  -0.00025  -0.42798
  0-1A  -> 30-1A   10.374656   83677.3   119.5   -0.07307  -0.39586  -0.13493   0.00080
  0-1A  -> 31-1A   10.497807   84670.5   118.1   -0.00145  -0.04452  -0.10431   0.00005
  0-1A  -> 32-1A   10.677123   86116.8   116.1    0.03304  -0.00306   0.04780  -0.00014
  0-1A  -> 33-1A   10.709123   86374.9   115.8   -0.05880  -0.00004   0.00009   0.17345
  0-1A  -> 34-1A   10.848864   87502.0   114.3   -0.00162  -0.00002  -0.00002  -0.01117
  0-1A  -> 35-1A   10.939696   88234.6   113.3    0.00157  -0.06213   0.00408  -0.00010
  0-1A  -> 36-1A   11.093739   89477.1   111.8   -0.02423  -0.17936   0.19285   0.00016
  0-1A  -> 37-1A   11.125623   89734.2   111.4   -0.12720  -0.00091   0.00139  -0.11569
  0-1A  -> 38-1A   11.131241   89779.5   111.4    0.17196   0.18679  -0.36841  -0.00081
  0-1A  -> 39-1A   11.224837   90534.4   110.5    0.04911  -0.00045   0.00039  -0.03946
  0-1A  -> 40-1A   11.250917   90744.8   110.2   -0.06911   0.00033  -0.00074   0.26132
  0-1A  -> 41-1A   11.288146   91045.0   109.8    0.00907   0.02498   0.13504   0.00005
  0-1A  -> 42-1A   11.469500   92507.8   108.1    0.00484   0.00005   0.00007  -0.00887
  0-1A  -> 43-1A   11.531969   93011.6   107.5   -0.00372   0.00001  -0.00002   0.03048
  0-1A  -> 44-1A   11.681233   94215.5   106.1   -0.08199  -0.00098  -0.00058  -0.17422
  0-1A  -> 45-1A   11.683794   94236.2   106.1    0.07630   0.17922   0.12116  -0.00052
  0-1A  -> 46-1A   11.751524   94782.4   105.5    0.02987  -0.01614  -0.09567  -0.00017
  0-1A  -> 47-1A   11.836396   95467.0   104.7   -0.00472   0.00001  -0.00011   0.16586
  0-1A  -> 48-1A   11.857227   95635.0   104.6   -0.04267   0.00009   0.00003  -0.46228
  0-1A  -> 49-1A   12.062320   97289.2   102.8   -0.00719   0.00003   0.00031   0.04028

Total run time:        2.948 sec

           *** ORCA-CIS/TD-DFT FINISHED WITHOUT ERROR ***
-----------------------
CIS/TD-DFT TOTAL ENERGY
-----------------------

    E(SCF)  =   -191.920178961 Eh
    DE(CIS) =      0.135914393 Eh (Root  1)
    ----------------------------- ---------
    E(tot)  =   -191.784264568 Eh


Maximum memory used throughout the entire CIS-calculation: 83.1 MB
=> NOW LEAVING ORCA_CIS

-------------------------   --------------------
FINAL SINGLE POINT ENERGY      -191.784264567783
-------------------------   --------------------



           ************************************************************
           *        Program running with 40 parallel MPI-processes    *
           *              working on a common directory               *
           ************************************************************

------------------------------------------------------------------------------
                              ORCA PROPERTY CALCULATIONS
------------------------------------------------------------------------------

GBWName                                 ... o601acrolein_orca_B3LYPG.gbw
Number of atoms                         ...      8
Number of basis functions               ...     80
Max core memory                         ...   1000 MB

Electric properties:
Dipole moment                           ... YES
Quadrupole moment                       ...  NO
Static polarizability (Dipole/Dipole)   ...  NO
Static polarizability (Dipole/Quad.)    ...  NO
Static polarizability (Quad./Quad.)     ...  NO
Static polarizability (Velocity)        ...  NO
Static hyperpolarizability              ...  NO

Atomic electric properties:
Dipole moment                           ...  NO
Quadrupole moment                       ...  NO
Static polarizability                   ...  NO

Choice of electric origin               ... Center of mass
Position of electric origin             ...     0.147627     0.024184     0.000014

General magnetic properties:
Magnetizability                         ...  NO

EPR properties:
g-Tensor (aka g-matrix)                 ...  NO
Zero-Field splitting spin-orbit         ...  NO
Zero-field splitting spin-spin          ...  NO
Hyperfine couplings                     ...  NO (   0 nuclei)
Quadrupole couplings                    ...  NO (   0 nuclei)
Contact density                         ...  NO (   0 nuclei)

NMR properties:
Chemical shifts                         ...  NO (   0 nuclei)
Spin-rotation constants                 ...  NO (   0 nuclei)
Spin-spin couplings                     ...  NO (   0 nuclei,    0 pairs)

Choice of magnetic origin               ... GIAO
Position of magnetic origin             ...     0.000000     0.000000     0.000000

Properties with geometric perturbations:
SCF Hessian                             ...  NO
IR spectrum                             ...  NO
VCD spectrum                            ...  NO
X-ray spectroscopy properties:
SCF XES/XAS/RIXS spectra                ...  NO

SCF SOC stabilization energy            ...  NO
Diagonal Born-Oppenheimer correction    ...  NO

-------------
DIPOLE MOMENT
-------------

Method             : SCF
Type of density    : Electron Density
Multiplicity       :   1
Irrep              :   0
Energy             :  -191.9201789610547451 Eh
Basis              : AO
                                X                 Y                 Z
Electronic contribution:      3.102307302       0.454007152       0.000370226
Nuclear contribution   :     -4.428797594      -0.725524652      -0.000414901
                        -----------------------------------------
Total Dipole Moment    :     -1.326490292      -0.271517500      -0.000044675
                        -----------------------------------------
Magnitude (a.u.)       :      1.353993445
Magnitude (Debye)      :      3.441577831



--------------------
Rotational spectrum 
--------------------
 
Rotational constants in cm-1:             1.605071             0.156328             0.142454 
Rotational constants in MHz :         48118.830077          4686.593709          4270.648635 

Dipole components along the rotational axes: 
x,y,z [a.u.] :     1.327206    -0.267995    -0.000044 
x,y,z [Debye]:     3.373491    -0.681190    -0.000113 

 

Dipole moment calculation done in   0.0 sec 

Maximum memory used throughout the entire PROP-calculation: 4.6 MB

--------------------------------
SUGGESTED CITATIONS FOR THIS RUN
--------------------------------

Below you find a list of papers that are relevant to this ORCA run
We neither can nor want to force you to cite these papers, but we appreciate if you do
You receive ORCA, which is the product of decades of hard work by many enthusiastic individuals, for free
The only thing we kindly ask in return is that you cite our papers,
We deeply appreciate it, if you show your appreciation for ORCA by not just citing the generic ORCA reference.

Please note that relegating all ORCA citations to the supporting information does *not* help us.
SI sections are not indexed - citations you put there will not count into any citation statistics
But we need these citations in order to attract the funding resources that allow us to do what we are doing

Therefore, if you are a happy ORCA user, please consider citing a few of the papers listed below in the main body of your paper

In addition to the list printed below, the program has created the file o601acrolein_orca_B3LYPG.bibtex that contains the list in bibtex format
You can import this file easily into all common literature databanks and citation aid programs


List of essential papers. We consider these as the minimum necessary citations

  1. Neese, F.
     Software update: the ORCA program system, version 6.0
     WIRES Comput. Molec. Sci. 2025 15(1), e70019
     doi.org/10.1002/wcms.7019

List of papers to cite with high priority. The work reported in these papers was absolutely
necessary for this run to complete.
Our perspective: the developers of density functionals and basis sets usually get cited in chemistry papers
Good! But without the algorithms to do something with them, the functionals or basis sets would not do anything.
Hence, in our opinion, the algorithm design and method developments papers are equally worthy of getting cited

  1. Neese, F.; Olbrich, G.
     Efficient use of the resolution of the identity approximation in time-dependent density functional calculations with hybrid density functionals
     Chem. Phys. Lett. 2002 362 , 170-178
     doi.org/10.1016/s0009-2614(02)01053-9
  2. Neese, F.
     An improvement of the resolution of the identity approximation for the formation of the Coulomb matrix
     J. Comp. Chem. 2003 24(14), 1740-1747
     doi.org/10.1002/jcc.10318
  3. Neese, F.; Wennmohs, F.; Hansen, A.; Becker, U.
     Efficient, approximate and parallel Hartree-Fock and hybrid DFT calculations. A 'chain-of-spheres' algorithm for the Hartree-Fock exchange
     Chem. Phys. 2009 356(1-3), 98-109
     doi.org/10.1016/j.chemphys.2008.10.036
  4. Helmich-Paris, B.; de Souza, B.; Neese, F.; Izsák, R.
     An improved chain of spheres for exchange algorithm
     J. Chem. Phys. 2021 155(10), 104109
     doi.org/10.1063/5.0058766
  5. Neese, F.
     The SHARK Integral Generation and Digestion System
     J. Comp. Chem. 2022 44(3), 381
     doi.org/10.1002/jcc.26942

List of suggested additional citations. These are papers that are important in the 'surrounding' of 
of this run, or papers that preceded the highly important papers. If you like your results we are grateful for a citation.

  1. Izsak, R.; Neese, F.
     An overlap fitted chain of spheres exchange method
     J. Chem. Phys. 2011 135 , 144105
     doi.org/10.1063/1.3646921
  2. Izsak, R.; Hansen, A.; Neese, F.
     The resolution of identity and chain of spheres approximations for the LPNO-CCSD singles Fock term
     Molec. Phys. 2012 110 , 2413-2417
     doi.org/10.1080/00268976.2012.687466
  3. Neese, F.
     The ORCA program system
     WIRES Comput. Molec. Sci. 2012 2(1), 73-78
     doi.org/10.1002/wcms.81
  4. Izsak, R.; Neese, F.; Klopper, W.
     Robust fitting techniques in the chain of spheres approximation to the Fock exchange: The role of the complementary space
     J. Chem. Phys. 2013 139 , 
     doi.org/10.1063/1.4819264
  5. Neese, F.
     Software update: the ORCA program system, version 4.0
     WIRES Comput. Molec. Sci. 2018 8(1), 1-6
     doi.org/10.1002/wcms.1327
  6. Neese, F.; Wennmohs, F.; Becker, U.; Riplinger, C.
     The ORCA quantum chemistry program package
     J. Chem. Phys. 2020 152(22), 224108
     doi.org/10.1063/5.0004608
  7. Neese, F.
     Software update: The ORCA program system—Version 5.0
     WIRES Comput. Molec. Sci. 2022 12(1), e1606
     doi.org/10.1002/wcms.1606

List of optional additional citations

  1. Neese, F.
     Approximate second-order SCF convergence for spin unrestricted wavefunctions
     Chem. Phys. Lett. 2000 325(1-3), 93-98
     doi.org/10.1016/s0009-2614(00)00662-x

Timings for individual modules:

Sum of individual times          ...       11.813 sec (=   0.197 min)
Startup calculation              ...        1.711 sec (=   0.029 min)  14.5 %
SCF iterations                   ...        4.168 sec (=   0.069 min)  35.3 %
Property integrals               ...        1.022 sec (=   0.017 min)   8.6 %
Property calculations            ...        0.974 sec (=   0.016 min)   8.2 %
CIS module                       ...        3.938 sec (=   0.066 min)  33.3 %
                             ****ORCA TERMINATED NORMALLY****
TOTAL RUN TIME: 0 days 0 hours 0 minutes 12 seconds 963 msec
