[Molden Format]
[Title]
 Molden file created by orca_2mkl for BaseName=o601acrolein_orca

[Atoms] AU
C    1   6         -3.3109929387        -0.2693710118        -0.0002003110 
C    2   6         -1.0635964497         0.8473588676         0.0004705418 
H    3   1         -3.4731900225        -2.3145630250        -0.0000566918 
H    4   1         -5.0570016207         0.7976590703        -0.0005782562 
H    5   1         -0.8430956455         2.8850845729        -0.0003307021 
C    6   6          1.2765081137        -0.6586375878         0.0001341706 
H    7   1          0.9922517292        -2.7361023440         0.0001889726 
O    8   8          3.3711901647         0.2314782233        -0.0002059801 
[GTO]
  1 0
s   6 1.0 
     3047.5249000000         0.5363343823
      457.3695100000         0.9894506076
      103.9486900000         1.5972822308
       29.2101550000         2.0791870615
        9.2866630000         1.7741742532
        3.1639270000         0.6125798260
s   3 1.0 
        7.8682724000        -0.3995563516
        1.8812885000        -0.1841552393
        0.5442493000         0.5163903794
p   3 1.0 
        7.8682724000         1.2960827175
        1.8812885000         0.9937536282
        0.5442493000         0.4959527138
s   1 1.0 
        0.1687144000         0.1876178721
p   1 1.0 
        0.1687144000         0.1541275509
s   1 1.0 
        0.0438000000         0.0682363322
p   1 1.0 
        0.0438000000         0.0285616127
d   1 1.0 
        0.8000000000         1.9292013661

  2 0
s   6 1.0 
     3047.5249000000         0.5363343823
      457.3695100000         0.9894506076
      103.9486900000         1.5972822308
       29.2101550000         2.0791870615
        9.2866630000         1.7741742532
        3.1639270000         0.6125798260
s   3 1.0 
        7.8682724000        -0.3995563516
        1.8812885000        -0.1841552393
        0.5442493000         0.5163903794
p   3 1.0 
        7.8682724000         1.2960827175
        1.8812885000         0.9937536282
        0.5442493000         0.4959527138
s   1 1.0 
        0.1687144000         0.1876178721
p   1 1.0 
        0.1687144000         0.1541275509
s   1 1.0 
        0.0438000000         0.0682363322
p   1 1.0 
        0.0438000000         0.0285616127
d   1 1.0 
        0.8000000000         1.9292013661

  3 0
s   3 1.0 
       18.7311370000         0.2149354183
        2.8253937000         0.3645711272
        0.6401217000         0.4150514277
s   1 1.0 
        0.1612778000         0.1813806839

  4 0
s   3 1.0 
       18.7311370000         0.2149354183
        2.8253937000         0.3645711272
        0.6401217000         0.4150514277
s   1 1.0 
        0.1612778000         0.1813806839

  5 0
s   3 1.0 
       18.7311370000         0.2149354183
        2.8253937000         0.3645711272
        0.6401217000         0.4150514277
s   1 1.0 
        0.1612778000         0.1813806839

  6 0
s   6 1.0 
     3047.5249000000         0.5363343823
      457.3695100000         0.9894506076
      103.9486900000         1.5972822308
       29.2101550000         2.0791870615
        9.2866630000         1.7741742532
        3.1639270000         0.6125798260
s   3 1.0 
        7.8682724000        -0.3995563516
        1.8812885000        -0.1841552393
        0.5442493000         0.5163903794
p   3 1.0 
        7.8682724000         1.2960827175
        1.8812885000         0.9937536282
        0.5442493000         0.4959527138
s   1 1.0 
        0.1687144000         0.1876178721
p   1 1.0 
        0.1687144000         0.1541275509
s   1 1.0 
        0.0438000000         0.0682363322
p   1 1.0 
        0.0438000000         0.0285616127
d   1 1.0 
        0.8000000000         1.9292013661

  7 0
s   3 1.0 
       18.7311370000         0.2149354183
        2.8253937000         0.3645711272
        0.6401217000         0.4150514277
s   1 1.0 
        0.1612778000         0.1813806839

  8 0
s   6 1.0 
     5484.6717000000         0.8317352088
      825.2349500000         1.5308074829
      188.0469600000         2.4771490916
       52.9645000000         3.2562802462
       16.8975700000         2.7928936336
        5.7996353000         0.9549376963
s   3 1.0 
       15.5396160000        -0.6179336976
        3.5999336000        -0.2757210088
        1.0137618000         0.8142076427
p   3 1.0 
       15.5396160000         3.1169455889
        3.5999336000         2.4014372483
        1.0137618000         1.0543605133
s   1 1.0 
        0.2700058000         0.2669561389
p   1 1.0 
        0.2700058000         0.2774319373
s   1 1.0 
        0.0845000000         0.1116998588
p   1 1.0 
        0.0845000000         0.0649398041
d   1 1.0 
        0.8000000000         1.9292013661

[5D]
[7F]
[9G]
[MO]
 Sym=     1a
 Ene= -1.91566773993420E+01
 Spin= Alpha
 Occup= 2.000000
  1      -0.000021806654
  2      -0.000200679258
  3      -0.000247047484
  4       0.000163341865
  5      -0.000000040358
  6      -0.001971774181
  7       0.000801162090
  8      -0.001616019187
  9      -0.000000399663
 10       0.003254079506
 11       0.000812552389
 12       0.000457153101
 13       0.000000014252
 14      -0.000082964204
 15      -0.000000055572
 16      -0.000000013933
 17      -0.000015123492
 18       0.000102116025
 19       0.000044062005
 20       0.000081536079
 21      -0.000058946482
 22       0.000184140668
 23       0.000000040833
 24      -0.002145528898
 25      -0.003729245923
 26      -0.001384884271
 27       0.000000458447
 28       0.008962240949
 29       0.004063988794
 30      -0.001063602553
 31       0.000000217626
 32       0.000036171281
 33       0.000000122122
 34       0.000000048577
 35      -0.000346166495
 36       0.000062259910
 37      -0.000199446855
 38      -0.000558247244
 39       0.000176153585
 40       0.001109729190
 41       0.000189585158
 42       0.000938311115
 43       0.000243808236
 44       0.000205028342
 45      -0.000331871757
 46      -0.000255464373
 47       0.000000022458
 48       0.007975105740
 49       0.004625781878
 50       0.005447829881
 51      -0.000000611619
 52      -0.016921531645
 53       0.000834289966
 54      -0.003537224433
 55      -0.000000225104
 56       0.000315444546
 57       0.000000205303
 58       0.000000120587
 59      -0.000791677900
 60      -0.000761011739
 61      -0.000125944257
 62       0.001880315505
 63       0.995130217089
 64       0.030273708618
 65      -0.001971506578
 66      -0.000755752179
 67       0.000000323480
 68      -0.021892472839
 69       0.004389033730
 70       0.001083596953
 71      -0.000000749719
 72       0.008933403008
 73      -0.000741671958
 74       0.000156271547
 75       0.000000057983
 76      -0.000048431906
 77       0.000000009349
 78      -0.000000007834
 79      -0.000096045308
 80       0.000082241287
 Sym=     1a
 Ene= -1.02795759206761E+01
 Spin= Alpha
 Occup= 2.000000
  1      -0.000057822932
  2      -0.000471852984
  3      -0.000337871216
  4       0.000142527809
  5      -0.000000001966
  6      -0.000107482184
  7       0.001413684399
  8      -0.001296711320
  9       0.000000031380
 10      -0.017231511839
 11      -0.002116305160
 12      -0.003102469064
 13      -0.000001523123
 14      -0.000187401054
 15      -0.000000034748
 16       0.000000085816
 17      -0.000094167583
 18      -0.000011563614
 19       0.001910128168
 20      -0.000262570865
 21      -0.000619567350
 22       0.000545940947
 23       0.000000092778
 24       0.002377829646
 25       0.000426951796
 26      -0.001100514979
 27      -0.000000118946
 28       0.003177242181
 29      -0.011272216498
 30      -0.001289803394
 31      -0.000000610592
 32       0.000634071154
 33       0.000000285397
 34      -0.000000182881
 35      -0.000385956870
 36       0.001103928408
 37      -0.000262709794
 38      -0.000734281716
 39       0.000032035183
 40       0.001542888023
 41      -0.000172882674
 42       0.000146487268
 43       0.995320209695
 44       0.038483969137
 45       0.002027936983
 46       0.001273826199
 47      -0.000000416064
 48      -0.024976260292
 49       0.002094968014
 50       0.001347600708
 51      -0.000000073640
 52       0.012322737689
 53      -0.001470193841
 54       0.005074765472
 55       0.000000777332
 56      -0.001153632902
 57      -0.000000500689
 58      -0.000000110208
 59       0.001108436753
 60       0.000658878546
 61      -0.000657173178
 62       0.004688842244
 63      -0.000060629323
 64       0.000599464765
 65       0.000911939469
 66       0.000399465866
 67      -0.000000127951
 68      -0.004857695486
 69       0.003695667799
 70       0.001566033178
 71      -0.000000698633
 72       0.008207987305
 73      -0.005647041828
 74      -0.002251706238
 75       0.000000924206
 76       0.001011708114
 77       0.000000461907
 78       0.000000211041
 79      -0.001034258874
 80      -0.001199226533
 Sym=     1a
 Ene= -1.02194724977741E+01
 Spin= Alpha
 Occup= 2.000000
  1       0.994053580095
  2       0.036572020563
  3       0.000868109481
  4       0.000362470390
  5       0.000000451145
  6      -0.028467823734
  7      -0.002096015028
  8      -0.000927733548
  9      -0.000000937532
 10       0.020570533682
 11       0.006207931679
 12       0.003634332358
 13       0.000001532666
 14      -0.000631670522
 15       0.000000393817
 16       0.000000123639
 17       0.000372926794
 18       0.000447239441
 19       0.046925373653
 20       0.000390464042
 21       0.001589272972
 22       0.000787502532
 23       0.000000470506
 24       0.005107842053
 25      -0.003516885615
 26      -0.001218760043
 27      -0.000001008793
 28       0.019543367611
 29       0.012323270303
 30      -0.006540057792
 31       0.000000005633
 32       0.000691510041
 33      -0.000000606914
 34      -0.000000305638
 35      -0.000669514104
 36      -0.000906688713
 37      -0.000798897585
 38       0.003978788482
 39      -0.000956234023
 40       0.004342094869
 41      -0.000182855972
 42      -0.000081608698
 43      -0.000104741155
 44      -0.000339994318
 45       0.000046783297
 46       0.000024606487
 47       0.000000079777
 48      -0.001094959694
 49      -0.001702620796
 50      -0.000759984823
 51       0.000000136646
 52      -0.039992829565
 53       0.009997687259
 54      -0.005169824949
 55      -0.000001814346
 56      -0.000054656378
 57       0.000000093886
 58       0.000000099294
 59      -0.000113601243
 60      -0.000004522486
 61      -0.000286957180
 62       0.000178377088
 63      -0.000014904697
 64      -0.000188860366
 65       0.000031753087
 66       0.000014453721
 67      -0.000000015004
 68       0.001124956945
 69      -0.000702308069
 70      -0.000332111193
 71       0.000000063081
 72       0.003563796690
 73      -0.001464846708
 74       0.000091957352
 75       0.000000712306
 76      -0.000060285745
 77      -0.000000037042
 78       0.000000011481
 79       0.000074221476
 80       0.000047734028
 Sym=     1a
 Ene= -1.02104642189940E+01
 Spin= Alpha
 Occup= 2.000000
  1      -0.047037005446
  2      -0.003140699293
  3      -0.001548516686
  4      -0.000796458892
  5      -0.000000513941
  6       0.008459990374
  7       0.003510274298
  8       0.000509841050
  9       0.000000526980
 10      -0.043275056024
 11      -0.009647527729
 12      -0.003224093063
 13      -0.000002919143
 14       0.000799129529
 15      -0.000000753022
 16      -0.000000435029
 17      -0.000699606670
 18      -0.001088962235
 19       0.994072783963
 20       0.037779105353
 21      -0.000565524315
 22      -0.000983981308
 23      -0.000000788495
 24      -0.031859132515
 25       0.000100982039
 26       0.003726305579
 27       0.000002449336
 28       0.076942130991
 29      -0.003194081084
 30      -0.013911225403
 31      -0.000003810061
 32      -0.000774450098
 33       0.000000325617
 34      -0.000000067330
 35       0.000601616611
 36       0.000446549999
 37      -0.000228532790
 38      -0.000597531462
 39      -0.000159130181
 40       0.000566806624
 41      -0.000854285877
 42       0.002975155334
 43      -0.001728356949
 44      -0.000664485184
 45       0.000495687879
 46      -0.000432599078
 47      -0.000000041857
 48       0.004277672296
 49      -0.004298212563
 50       0.000768050767
 51      -0.000000029031
 52      -0.033321516654
 53       0.007489041440
 54      -0.004382952483
 55      -0.000001795419
 56       0.000683081654
 57       0.000000310743
 58      -0.000000272986
 59      -0.000469906290
 60       0.001021041075
 61      -0.000318825361
 62      -0.000230761191
 63      -0.000012559376
 64      -0.000205816417
 65       0.000120685979
 66       0.000053875138
 67       0.000000022821
 68       0.000678464951
 69      -0.000579617332
 70      -0.000889235786
 71      -0.000000020704
 72       0.003854203184
 73      -0.000931023865
 74       0.000582927119
 75       0.000001094069
 76      -0.000248835977
 77      -0.000000093204
 78      -0.000000039787
 79      -0.000063072668
 80       0.000114398323
 Sym=     1a
 Ene= -1.06045744946837E+00
 Spin= Alpha
 Occup= 2.000000
  1       0.003691166012
  2      -0.008479305488
  3      -0.006459993442
  4      -0.000172867548
  5      -0.000000711777
  6      -0.014361441901
  7       0.004229064804
  8      -0.010509921661
  9      -0.000002633134
 10      -0.068481877472
 11      -0.015287846519
 12      -0.004453596236
 13      -0.000005031468
 14       0.000091292256
 15      -0.000000341658
 16       0.000000007575
 17      -0.000399228981
 18      -0.000186553772
 19       0.019492247670
 20      -0.036198462469
 21      -0.025817492756
 22       0.009682135792
 23       0.000005933305
 24      -0.021756864351
 25      -0.019837841151
 26      -0.006862291450
 27       0.000002586008
 28       0.114546126937
 29      -0.001758822516
 30      -0.020013905339
 31      -0.000005113430
 32       0.003451573945
 33       0.000001631209
 34      -0.000000156742
 35      -0.003301032269
 36       0.003245425119
 37      -0.002596436726
 38      -0.003812240802
 39      -0.000199841724
 40       0.008405878806
 41      -0.006918847630
 42       0.003597280289
 43       0.118528204800
 44      -0.226455556227
 45      -0.170129614006
 46      -0.077434239330
 47       0.000028470778
 48      -0.070817034597
 49       0.022717707128
 50       0.026079949325
 51      -0.000002681097
 52      -0.063442857657
 53      -0.002967136629
 54      -0.010116171963
 55      -0.000001695827
 56       0.015606713261
 57       0.000006966676
 58       0.000003359617
 59      -0.016234104080
 60      -0.018480860573
 61      -0.027681463271
 62       0.017716194384
 63       0.194313550278
 64      -0.426324417495
 65       0.154277639153
 66       0.063887932070
 67      -0.000024715442
 68      -0.387339854275
 69       0.047772236262
 70       0.016357529152
 71      -0.000008268585
 72       0.021185924466
 73       0.004512791934
 74       0.002019604155
 75       0.000001138278
 76       0.003620225102
 77       0.000002157917
 78       0.000001590667
 79      -0.008455638726
 80      -0.008087018468
 Sym=     1a
 Ene= -8.13821001707846E-01
 Spin= Alpha
 Occup= 2.000000
  1       0.144818811377
  2      -0.275520314730
  3      -0.098031520393
  4      -0.038061554461
  5      -0.000028893503
  6      -0.228595000075
  7      -0.018503090836
  8       0.005028020032
  9      -0.000009377279
 10      -0.026874449483
 11      -0.004102236178
 12       0.002897460934
 13      -0.000006000000
 14       0.013036143751
 15      -0.000006617642
 16      -0.000000226740
 17      -0.003838055997
 18      -0.003389666273
 19       0.160460715112
 20      -0.308825784014
 21       0.062599199911
 22       0.067479909304
 23       0.000055292921
 24      -0.198638612822
 25      -0.002813996800
 26      -0.023208483954
 27       0.000012970543
 28       0.109178183475
 29       0.011356339359
 30      -0.034571207003
 31       0.000006922336
 32       0.011874101167
 33      -0.000003247396
 34       0.000001342143
 35      -0.000531852615
 36      -0.003814570342
 37      -0.074393060945
 38      -0.005600904683
 39      -0.069356225538
 40      -0.012113931682
 41      -0.073652302861
 42       0.005538490236
 43       0.052312232322
 44      -0.101106565970
 45       0.136158755884
 46      -0.011920329163
 47      -0.000012615759
 48      -0.085362461530
 49       0.047391310204
 50       0.013106440947
 51      -0.000007344255
 52      -0.082194128209
 53       0.030415871732
 54      -0.001621846765
 55      -0.000012095844
 56       0.004175753068
 57      -0.000000483704
 58      -0.000000995518
 59       0.000912797303
 60       0.010081051611
 61      -0.033491283809
 62       0.002741156865
 63      -0.038033558498
 64       0.089199906207
 65      -0.000394461003
 66      -0.014660567865
 67       0.000002328108
 68       0.070456961320
 69       0.010359897976
 70      -0.000128300404
 71      -0.000001217455
 72      -0.007448947078
 73      -0.006244281883
 74      -0.000338801215
 75       0.000004225433
 76       0.000814472866
 77       0.000000068460
 78      -0.000000277210
 79      -0.001500998363
 80       0.000536122768
 Sym=     1a
 Ene= -6.56098620602287E-01
 Spin= Alpha
 Occup= 2.000000
  1       0.132614475049
  2      -0.263474853583
  3       0.082105454106
  4      -0.004280024891
  5      -0.000001871077
  6      -0.249805652976
  7       0.038406948084
  8      -0.000378052940
  9       0.000004723622
 10       0.029788745729
 11       0.005824470676
 12       0.008985749495
 13       0.000004495949
 14       0.009882064476
 15      -0.000003985364
 16       0.000001751833
 17       0.005326311328
 18       0.004777385222
 19      -0.057943461841
 20       0.116951141681
 21       0.219102004537
 22      -0.022132891219
 23      -0.000000948733
 24       0.108812916661
 25       0.049085453616
 26       0.001211108657
 27      -0.000003715036
 28       0.054454679102
 29       0.048272733877
 30      -0.007740214779
 31      -0.000001980725
 32      -0.003929424569
 33      -0.000005941965
 34      -0.000002117693
 35      -0.005643522927
 36      -0.013035103337
 37      -0.105100452354
 38      -0.033079803690
 39      -0.134618558798
 40      -0.038923027035
 41       0.045359224051
 42       0.009464600852
 43      -0.113874313020
 44       0.236303974168
 45      -0.177958920238
 46      -0.004984066461
 47       0.000031706715
 48       0.219780251418
 49      -0.038336595024
 50      -0.015506599394
 51       0.000008532221
 52      -0.089874713683
 53       0.006906093359
 54      -0.024993188643
 55      -0.000002962099
 56      -0.005087484872
 57      -0.000000406826
 58       0.000001324651
 59      -0.009827799110
 60      -0.009275366789
 61       0.097703594228
 62       0.026291829404
 63       0.064951048159
 64      -0.152436359246
 65      -0.061969814804
 66      -0.001052815155
 67       0.000010497778
 68      -0.177186470149
 69      -0.031558665311
 70      -0.000294806458
 71       0.000004809897
 72      -0.013492734520
 73       0.008079729614
 74       0.005018599831
 75      -0.000001359021
 76      -0.003569378839
 77      -0.000001820757
 78      -0.000000176455
 79       0.004410146310
 80       0.001242792438
 Sym=     1a
 Ene= -5.82755721787841E-01
 Spin= Alpha
 Occup= 2.000000
  1       0.045457039538
  2      -0.090313793354
  3       0.073094955145
  4       0.153251891886
  5       0.000004258347
  6      -0.104213860776
  7       0.013631382748
  8       0.053384067042
  9       0.000002274558
 10       0.024893235903
 11       0.012067620353
 12       0.004549867097
 13       0.000003326474
 14       0.004351536202
 15      -0.000001259502
 16       0.000002921202
 17       0.003991084022
 18       0.007987413311
 19      -0.094065946925
 20       0.187989657422
 21      -0.013025532730
 22       0.192610918172
 23      -0.000055137516
 24       0.213962518000
 25       0.008133123031
 26       0.058615877838
 27      -0.000021928811
 28      -0.051825166896
 29      -0.007222574621
 30       0.012288276624
 31      -0.000001954771
 32      -0.005249494019
 33      -0.000000121220
 34      -0.000011150443
 35      -0.004840796886
 36       0.004615486024
 37      -0.120381918325
 38      -0.057522630143
 39      -0.034335810490
 40      -0.020436574209
 41       0.171158000290
 42       0.072622492540
 43       0.084737599972
 44      -0.176184786922
 45       0.011469469176
 46       0.229033278390
 47      -0.000011992222
 48      -0.185888781141
 49       0.031963227867
 50       0.073456924784
 51      -0.000005130468
 52       0.028190090807
 53      -0.000283874389
 54       0.016294011702
 55       0.000004624615
 56       0.003789231387
 57       0.000000294576
 58      -0.000000566787
 59       0.006656344637
 60      -0.003909854465
 61      -0.178122242810
 62      -0.083872535318
 63      -0.036742423660
 64       0.087430421536
 65       0.027057825027
 66       0.117000439175
 67      -0.000010432071
 68       0.100408515697
 69       0.015902035667
 70       0.057882351723
 71      -0.000006125337
 72       0.000622380074
 73      -0.000160742686
 74      -0.001444805887
 75      -0.000002508393
 76       0.002548526691
 77       0.000000831875
 78       0.000001650960
 79       0.003636258378
 80      -0.009625234156
 Sym=     1a
 Ene= -4.88350034798264E-01
 Spin= Alpha
 Occup= 2.000000
  1      -0.010542324300
  2       0.021545066329
  3      -0.059685486242
  4      -0.292757713786
  5      -0.000010017528
  6       0.055585229454
  7      -0.010292741292
  8      -0.106822323242
  9       0.000002904439
 10       0.038734843667
 11      -0.004292404504
 12      -0.006211085967
 13       0.000002373289
 14      -0.002731625672
 15      -0.000001970477
 16      -0.000003985142
 17      -0.008502970358
 18      -0.002850829243
 19       0.014880534907
 20      -0.027871669675
 21       0.238945499357
 22      -0.125288020172
 23       0.000043769611
 24      -0.023775695906
 25       0.086128363379
 26      -0.043213677899
 27       0.000013919228
 28      -0.022006466623
 29       0.034424615919
 30      -0.002191359980
 31       0.000004256301
 32       0.000526009720
 33      -0.000006170814
 34       0.000004793026
 35       0.002639970725
 36      -0.001317129436
 37       0.176705684159
 38       0.106605774561
 39      -0.043470823845
 40      -0.025738353244
 41      -0.068115264179
 42      -0.040462332068
 43       0.009471618492
 44      -0.017125408845
 45      -0.148371604743
 46       0.298954016275
 47       0.000040198553
 48      -0.063246120479
 49      -0.048491657556
 50       0.089491472220
 51       0.000012696453
 52      -0.026143252015
 53      -0.013492518313
 54       0.007148300497
 55      -0.000000726359
 56       0.003425533589
 57      -0.000000068802
 58       0.000001279597
 59       0.002090245456
 60      -0.000034211068
 61      -0.148107425838
 62      -0.093560316597
 63      -0.010609438594
 64       0.022035900083
 65      -0.045829159762
 66       0.215056659653
 67       0.000019451810
 68       0.052252328672
 69      -0.037997067345
 70       0.107369628795
 71       0.000012965904
 72       0.022619103376
 73      -0.001846115859
 74       0.005269347368
 75       0.000000306909
 76       0.000270272640
 77      -0.000002834050
 78       0.000001663463
 79       0.012054939588
 80      -0.012656760988
 Sym=     1a
 Ene= -4.84471202075489E-01
 Spin= Alpha
 Occup= 2.000000
  1      -0.009001585490
  2       0.021432595737
  3      -0.353746464872
  4       0.047369665360
  5      -0.000110563132
  6       0.016593361480
  7      -0.139770047964
  8       0.026071449874
  9      -0.000045650960
 10       0.025367870468
 11      -0.016697272485
 12       0.007281410435
 13      -0.000006326520
 14      -0.003195627258
 15      -0.000003210417
 16      -0.000004092454
 17      -0.002294612145
 18      -0.012558560385
 19       0.028821705177
 20      -0.060260908852
 21       0.174474635320
 22       0.208339380975
 23      -0.000012194819
 24      -0.012411391891
 25       0.025411945195
 26       0.041785684236
 27      -0.000012929660
 28      -0.007645218905
 29       0.020026932092
 30       0.004730455766
 31       0.000008357579
 32      -0.002102217958
 33      -0.000002605586
 34      -0.000007512179
 35       0.001278424200
 36      -0.007631033165
 37       0.002747537853
 38       0.006138709660
 39       0.199628736329
 40       0.121658680454
 41       0.094627761142
 42       0.073673139649
 43      -0.053209994536
 44       0.122422576520
 45       0.111659626145
 46       0.099959045150
 47      -0.000011277539
 48       0.143219344190
 49       0.063498426151
 50       0.055038438196
 51      -0.000005284337
 52       0.003901650482
 53      -0.000247871786
 54      -0.001345769021
 55      -0.000005247092
 56      -0.002169913463
 57      -0.000000701290
 58      -0.000000911218
 59      -0.005995164389
 60       0.003795690268
 61      -0.003016075410
 62       0.006025693876
 63       0.066631526093
 64      -0.150688043073
 65      -0.276856311737
 66      -0.061257828402
 67       0.000048888045
 68      -0.278361111386
 69      -0.104143759589
 70      -0.013494130482
 71       0.000018106054
 72      -0.075379081311
 73      -0.007827645930
 74      -0.000402317524
 75       0.000001947955
 76      -0.007028372838
 77      -0.000003788107
 78      -0.000000747992
 79       0.008892108069
 80       0.003945617925
 Sym=     1a
 Ene= -4.30122834080685E-01
 Spin= Alpha
 Occup= 2.000000
  1       0.018174909373
  2      -0.038951098616
  3      -0.246123681056
  4      -0.016997888127
  5      -0.000089311388
  6      -0.043197326608
  7      -0.084844550634
  8      -0.008268680921
  9      -0.000035211108
 10       0.004048756809
 11      -0.014287751947
 12      -0.002368509150
 13      -0.000006082099
 14      -0.002145987584
 15      -0.000002894979
 16      -0.000003136849
 17      -0.000946573152
 18      -0.008911545980
 19       0.003584516484
 20      -0.009124617668
 21       0.191519602576
 22       0.130791804291
 23       0.000001457764
 24       0.021721077896
 25       0.046123401853
 26       0.038554512345
 27      -0.000004871343
 28      -0.019319913877
 29       0.005139042222
 30       0.012563729014
 31       0.000004099951
 32      -0.001914295632
 33      -0.000001991337
 34      -0.000006658630
 35      -0.010035867749
 36      -0.009160143710
 37       0.010523016958
 38       0.014635303950
 39       0.110839900220
 40       0.092244735519
 41       0.094552392199
 42       0.076637687806
 43       0.010903864742
 44      -0.036399668118
 45      -0.273834820873
 46      -0.174067078742
 47       0.000067445397
 48      -0.012837887969
 49      -0.074712971685
 50      -0.050602704949
 51       0.000025878697
 52       0.036299958963
 53      -0.013141067915
 54      -0.003797157807
 55       0.000002143399
 56       0.003581633746
 57       0.000004177214
 58       0.000002919886
 59      -0.020693369105
 60      -0.013508285826
 61       0.115559586414
 62       0.097337354924
 63      -0.057617396922
 64       0.127115246509
 65       0.412332379782
 66       0.147041371200
 67      -0.000046478985
 68       0.253073653231
 69       0.172635760668
 70       0.059671215977
 71      -0.000017274485
 72       0.074622459472
 73       0.025223332022
 74       0.012230928751
 75      -0.000004471310
 76       0.007487935674
 77       0.000002484525
 78       0.000000455813
 79      -0.010909678223
 80      -0.007387875645
 Sym=     1a
 Ene= -4.10853463012384E-01
 Spin= Alpha
 Occup= 2.000000
  1       0.000005488708
  2      -0.000009674919
  3       0.000057989618
  4      -0.000220162892
  5      -0.094114019245
  6      -0.000041863751
  7       0.000019308332
  8      -0.000103535515
  9      -0.046779552043
 10      -0.000128026411
 11      -0.000019978868
 12      -0.000032618490
 13      -0.000851910122
 14      -0.000003681793
 15      -0.006487592580
 16      -0.002028978736
 17      -0.000013925580
 18       0.000008898106
 19       0.000010588207
 20      -0.000028379244
 21       0.000022405759
 22       0.000170134195
 23      -0.171827242029
 24       0.000010466970
 25      -0.000009832226
 26       0.000053338961
 27      -0.086056253870
 28       0.000148734634
 29      -0.000034337045
 30      -0.000006483443
 31      -0.008581081989
 32       0.000004162505
 33      -0.005918831280
 34       0.007095881985
 35      -0.000018175818
 36       0.000007618954
 37       0.000142091547
 38       0.000115383900
 39      -0.000107731639
 40      -0.000080575384
 41       0.000144907092
 42       0.000109532619
 43       0.000013486573
 44      -0.000029872040
 45       0.000024866721
 46      -0.000074986363
 47      -0.367346031272
 48      -0.000041716103
 49       0.000011635740
 50      -0.000020065084
 51      -0.176834775817
 52      -0.000011884352
 53       0.000004146241
 54      -0.000004379359
 55      -0.027235359499
 56       0.000004871441
 57      -0.017358408083
 58      -0.012827383521
 59      -0.000005236117
 60      -0.000003367334
 61       0.000029473625
 62       0.000036940438
 63       0.000004148101
 64      -0.000008972921
 65      -0.000060393548
 66      -0.000086740222
 67      -0.445947054919
 68      -0.000024744159
 69      -0.000029745962
 70      -0.000046104312
 71      -0.257672235835
 72      -0.000008159683
 73      -0.000003414255
 74      -0.000002382075
 75      -0.023828311798
 76      -0.000008790288
 77       0.028946564983
 78       0.011535159333
 79       0.000000687154
 80       0.000006174854
 Sym=     1a
 Ene= -4.02062280963205E-01
 Spin= Alpha
 Occup= 2.000000
  1       0.010469870139
  2      -0.021378494136
  3       0.059576915603
  4      -0.316425878236
  5       0.000075268426
  6      -0.034963419576
  7       0.028702765224
  8      -0.137177337535
  9       0.000037304996
 10       0.011875654908
 11       0.015955916241
 12      -0.033022857165