Input file generated by gabedit...                                      
SP        RCAM-B3LYP TD-FC                                            CC-pVTZ             
Number of atoms                            I                1
Info1-9                                    I   N=           9
          11          10           0           0           0         111
           1         218        4001
Full Title                                 C   N=           3
Input file generated by gabedit...  
Route                                      C   N=           8
#P CAM-B3LYP/CC-pvtz TD(NStates=20) # Gfinput IOP(6/7=3) Pop
=full Density Test # Units(Ang,Deg) 
Charge                                     I               -1
Multiplicity                               I                1
Number of electrons                        I                8
Number of alpha electrons                  I                4
Number of beta electrons                   I                4
Number of basis functions                  I               30
Number of independent functions            I               30
Number of point charges in /Mol/           I                0
Number of translation vectors              I                0
Atomic numbers                             I   N=           1
           7
Nuclear charges                            R   N=           1
  7.00000000E+00
Current cartesian coordinates              R   N=           3
  0.00000000E+00  0.00000000E+00  0.00000000E+00
Number of symbols in /Mol/                 I                0
Int Atom Types                             I   N=           1
           0
Force Field                                I                0
Atom Types                                 C   N=           1
            
MM charges                                 R   N=           1
  0.00000000E+00
Integer atomic weights                     I   N=           1
          14
Real atomic weights                        R   N=           1
  1.40030740E+01
Atom fragment info                         I   N=           1
           0
Atom residue num                           I   N=           1
           0
Nuclear spins                              I   N=           1
           2
Nuclear ZEff                               R   N=           1
 -4.55000000E+00
Nuclear ZNuc                               R   N=           1
  7.00000000E+00
Nuclear QMom                               R   N=           1
  2.04400000E+00
Nuclear GFac                               R   N=           1
  4.03761000E-01
MicOpt                                     I   N=           1
          -1
Number of residues                         I                0
Number of secondary structures             I                0
SymInf integers                            I   N=          26
           1           8           1           1           1           1
          -1          -1          -1           1          -1          -1
          -1           1          -1          -1          -1          -1
           1           1           1          -1           1           1
           1          -1
RotTr to input orientation                 R   N=          12
  0.00000000E+00  0.00000000E+00 -1.00000000E+00  0.00000000E+00  1.00000000E+00
  0.00000000E+00  1.00000000E+00  0.00000000E+00  0.00000000E+00  0.00000000E+00
  0.00000000E+00  0.00000000E+00
Number of contracted shells                I               10
Number of primitive shells                 I               23
Pure/Cartesian d shells                    I                0
Pure/Cartesian f shells                    I                0
Highest angular momentum                   I                3
Largest degree of contraction              I                7
Shell types                                I   N=          10
           0           0           0           0           1           1
           1          -2          -2          -3
Number of primitives per shell             I   N=          10
           7           6           1           1           3           1
           1           1           1           1
Shell to atom map                          I   N=          10
           1           1           1           1           1           1
           1           1           1           1
Primitive exponents                        R   N=          23
  1.14200000E+04  1.71200000E+03  3.89300000E+02  1.10000000E+02  3.55700000E+01
  1.25400000E+01  4.64400000E+00  3.89300000E+02  1.10000000E+02  3.55700000E+01
  1.25400000E+01  4.64400000E+00  5.11800000E-01  1.29300000E+00  1.78700000E-01
  2.66300000E+01  5.94800000E+00  1.74200000E+00  5.55000000E-01  1.72500000E-01
  1.65400000E+00  4.69000000E-01  1.09300000E+00
Contraction coefficients                   R   N=          23
  5.34563860E-04  4.13435660E-03  2.12335358E-02  8.25006224E-02  2.38138871E-01
  4.42551547E-01  3.53757422E-01 -4.89867350E-05 -1.19527323E-03 -1.03490714E-02
 -6.48680190E-02 -1.71552477E-01  1.07289568E+00  1.00000000E+00  1.00000000E+00
  3.98072123E-02  2.49002660E-01  8.10479727E-01  1.00000000E+00  1.00000000E+00
  1.00000000E+00  1.00000000E+00  1.00000000E+00
Coordinates of each shell                  R   N=          30
  0.00000000E+00  0.00000000E+00  0.00000000E+00  0.00000000E+00  0.00000000E+00
  0.00000000E+00  0.00000000E+00  0.00000000E+00  0.00000000E+00  0.00000000E+00
  0.00000000E+00  0.00000000E+00  0.00000000E+00  0.00000000E+00  0.00000000E+00
  0.00000000E+00  0.00000000E+00  0.00000000E+00  0.00000000E+00  0.00000000E+00
  0.00000000E+00  0.00000000E+00  0.00000000E+00  0.00000000E+00  0.00000000E+00
  0.00000000E+00  0.00000000E+00  0.00000000E+00  0.00000000E+00  0.00000000E+00
Num ILSW                                   I              100
ILSW                                       I   N=         100
           0           0           0           0           2           0
           0           0           0           0       20419          -1
           5           0           0           0           0           0
           0           0           0           0           0           0
           1           0           0           0           0           0
           0           0      100000           0          -1           0
           0           0           0           0           0           0
           0           0           0           1           0           0
           0 -2000000000           1           0           0           0
           0           1           4          52           0           0
           0           0          40           0           0           0
           0           0           0           1           0           1
           0           0           0           0           0           0
           0           0           0           0           0           0
           0           0           0           0           0           0
           0           0           0           0           0           0
           0           0           0           0
Num RLSW                                   I               52
RLSW                                       R   N=          52
  1.00000000E+00  1.00000000E+00  1.00000000E+00  8.10000000E-01  1.00000000E+00
  0.00000000E+00  3.30000000E-01  1.90000000E-01  0.00000000E+00  4.60000000E-01
  0.00000000E+00  3.30000000E-01  1.90000000E-01  0.00000000E+00  4.60000000E-01
  0.00000000E+00  0.00000000E+00  1.00000000E+00  0.00000000E+00  0.00000000E+00
  0.00000000E+00  0.00000000E+00  1.00000000E+00  0.00000000E+00  0.00000000E+00
  0.00000000E+00  0.00000000E+00  1.00000000E+00  0.00000000E+00  0.00000000E+00
  0.00000000E+00  0.00000000E+00  1.00000000E+00  0.00000000E+00  0.00000000E+00
  0.00000000E+00  0.00000000E+00  0.00000000E+00  1.00000000E+00  1.00000000E+00
  0.00000000E+00  1.00000000E+00  0.00000000E+00  0.00000000E+00  0.00000000E+00
  0.00000000E+00  0.00000000E+00  0.00000000E+00  0.00000000E+00  0.00000000E+00
  0.00000000E+00  0.00000000E+00
MxBond                                     I                1
NBond                                      I   N=           1
           0
IBond                                      I   N=           1
           0
RBond                                      R   N=           1
  0.00000000E+00
Virial Ratio                               R      2.001102659837708E+00
SCF Energy                                 R     -5.447616364075125E+01
CIS Energy                                 R     -5.447596785382727E+01
Total Energy                               R     -5.447596785382727E+01
Post-SCF wavefunction norm                 R      1.000000000000000E+00
RMS Density                                R      4.911722069275136E-09
Job Status                                 I                1
Nuclear derivative order                   I                0
External E-field                           R   N=          35
  0.00000000E+00  0.00000000E+00  0.00000000E+00  0.00000000E+00  0.00000000E+00
  0.00000000E+00  0.00000000E+00  0.00000000E+00  0.00000000E+00  0.00000000E+00
  0.00000000E+00  0.00000000E+00  0.00000000E+00  0.00000000E+00  0.00000000E+00
  0.00000000E+00  0.00000000E+00  0.00000000E+00  0.00000000E+00  0.00000000E+00
  0.00000000E+00  0.00000000E+00  0.00000000E+00  0.00000000E+00  0.00000000E+00
  0.00000000E+00  0.00000000E+00  0.00000000E+00  0.00000000E+00  0.00000000E+00
  0.00000000E+00  0.00000000E+00  0.00000000E+00  0.00000000E+00  0.00000000E+00
IOpCl                                      I                0
IROHF                                      I                0
Alpha Orbital Energies                     R   N=          30
 -1.40257334E+01 -3.71543474E-01  7.22246568E-02  7.22246568E-02  2.64558824E-01
  8.50892694E-01  8.65183368E-01  8.65183368E-01  9.35082270E-01  1.46773372E+00
  1.47129543E+00  1.47129543E+00  1.50143729E+00  1.50143729E+00  3.27344453E+00
  3.30320333E+00  3.30320333E+00  4.34244766E+00  4.34490545E+00  4.34490545E+00
  4.36229089E+00  4.36229089E+00  4.40203536E+00  4.40203536E+00  4.90083786E+00
  4.90083786E+00  4.90218363E+00  4.93764766E+00  4.93764766E+00  5.67028771E+00
Alpha MO coefficients                      R   N=         900
  9.73741142E-01 -1.09932897E-02  5.03296133E-02  2.58181358E-03  0.00000000E+00
  0.00000000E+00  0.00000000E+00  0.00000000E+00  0.00000000E+00  0.00000000E+00
  0.00000000E+00  0.00000000E+00  0.00000000E+00 -3.13596425E-05  0.00000000E+00
  0.00000000E+00  5.43164941E-05  0.00000000E+00  7.23449633E-05  0.00000000E+00
  0.00000000E+00 -1.25305152E-04  0.00000000E+00  0.00000000E+00  0.00000000E+00
  0.00000000E+00  0.00000000E+00  0.00000000E+00  0.00000000E+00  0.00000000E+00
 -2.23734559E-01  4.78320940E-01  1.52518001E-01  4.72869279E-01  0.00000000E+00
  0.00000000E+00  0.00000000E+00  0.00000000E+00  0.00000000E+00  0.00000000E+00
  0.00000000E+00  0.00000000E+00  0.00000000E+00 -1.17837670E-03  0.00000000E+00
  0.00000000E+00  2.04100832E-03  0.00000000E+00 -5.08641202E-03  0.00000000E+00
  0.00000000E+00  8.80992404E-03  0.00000000E+00  0.00000000E+00  0.00000000E+00
  0.00000000E+00  0.00000000E+00  0.00000000E+00  0.00000000E+00  0.00000000E+00
  0.00000000E+00  0.00000000E+00  0.00000000E+00  0.00000000E+00  0.00000000E+00
  0.00000000E+00  3.39545632E-01  0.00000000E+00  0.00000000E+00  3.57627665E-01
  0.00000000E+00  0.00000000E+00  5.28031194E-01  0.00000000E+00  0.00000000E+00
  0.00000000E+00  0.00000000E+00  0.00000000E+00  0.00000000E+00  0.00000000E+00
  0.00000000E+00  0.00000000E+00  0.00000000E+00 -4.07938958E-03  0.00000000E+00
  0.00000000E+00  5.26646922E-03  0.00000000E+00  0.00000000E+00  0.00000000E+00
  0.00000000E+00  0.00000000E+00  0.00000000E+00  0.00000000E+00  0.00000000E+00
  3.39545632E-01  0.00000000E+00  0.00000000E+00  3.57627665E-01  0.00000000E+00
  0.00000000E+00  5.28031194E-01  0.00000000E+00  0.00000000E+00  0.00000000E+00
  0.00000000E+00  0.00000000E+00  0.00000000E+00  0.00000000E+00  0.00000000E+00
  0.00000000E+00  0.00000000E+00  0.00000000E+00  0.00000000E+00  0.00000000E+00
 -1.66540376E-03  0.00000000E+00  0.00000000E+00  0.00000000E+00  6.45008122E-03
  0.00000000E+00  0.00000000E+00  0.00000000E+00  0.00000000E+00  3.13962932E-01
  0.00000000E+00  0.00000000E+00  3.24830337E-01  0.00000000E+00  0.00000000E+00
  5.82650500E-01  0.00000000E+00  0.00000000E+00  0.00000000E+00  0.00000000E+00
  0.00000000E+00  0.00000000E+00  0.00000000E+00  0.00000000E+00  0.00000000E+00
  0.00000000E+00  0.00000000E+00  0.00000000E+00  0.00000000E+00 -3.74808715E-03
  0.00000000E+00  0.00000000E+00  0.00000000E+00  4.83875971E-03  0.00000000E+00
  0.00000000E+00  0.00000000E+00  0.00000000E+00  0.00000000E+00 -3.00187465E-01
  0.00000000E+00  0.00000000E+00 -8.81611113E-01  0.00000000E+00  0.00000000E+00
  1.14053549E+00  0.00000000E+00  0.00000000E+00  0.00000000E+00  0.00000000E+00
  0.00000000E+00  0.00000000E+00  0.00000000E+00  0.00000000E+00  0.00000000E+00
  0.00000000E+00  0.00000000E+00  0.00000000E+00  0.00000000E+00  2.18266883E-03
  0.00000000E+00  0.00000000E+00  0.00000000E+00 -2.81781334E-03  0.00000000E+00
  0.00000000E+00  0.00000000E+00  0.00000000E+00  0.00000000E+00  0.00000000E+00
  0.00000000E+00 -2.90325438E-01  0.00000000E+00  0.00000000E+00 -8.55714412E-01
  0.00000000E+00  0.00000000E+00  1.16583885E+00  0.00000000E+00  0.00000000E+00
  0.00000000E+00  0.00000000E+00  0.00000000E+00  0.00000000E+00  0.00000000E+00
  0.00000000E+00  0.00000000E+00  0.00000000E+00  2.26178606E-03  0.00000000E+00
  0.00000000E+00 -2.91995318E-03  0.00000000E+00  0.00000000E+00  0.00000000E+00
  0.00000000E+00  0.00000000E+00  0.00000000E+00  0.00000000E+00  0.00000000E+00
 -2.90325438E-01  0.00000000E+00  0.00000000E+00 -8.55714412E-01  0.00000000E+00
  0.00000000E+00  1.16583885E+00  0.00000000E+00  0.00000000E+00  0.00000000E+00
  0.00000000E+00  0.00000000E+00  0.00000000E+00  0.00000000E+00  0.00000000E+00
  0.00000000E+00  0.00000000E+00  0.00000000E+00  0.00000000E+00  0.00000000E+00
  9.23370235E-04  0.00000000E+00  0.00000000E+00  0.00000000E+00 -3.57619772E-03
  5.32110544E-02 -1.39561524E+00 -2.57078649E-01  1.64827574E+00  0.00000000E+00
  0.00000000E+00  0.00000000E+00  0.00000000E+00  0.00000000E+00  0.00000000E+00
  0.00000000E+00  0.00000000E+00  0.00000000E+00  3.53064490E-03  0.00000000E+00
  0.00000000E+00 -6.11525635E-03  0.00000000E+00 -8.09950473E-03  0.00000000E+00
  0.00000000E+00  1.40287537E-02  0.00000000E+00  0.00000000E+00  0.00000000E+00
  0.00000000E+00  0.00000000E+00  0.00000000E+00  0.00000000E+00  0.00000000E+00
  6.52962622E-03  2.30411111E-02 -7.84684541E-03 -3.08532455E-02  0.00000000E+00
  0.00000000E+00  0.00000000E+00  0.00000000E+00  0.00000000E+00  0.00000000E+00
  0.00000000E+00  0.00000000E+00  0.00000000E+00  1.10236299E-02  0.00000000E+00
  0.00000000E+00 -1.90934871E-02  0.00000000E+00 -5.05571248E-01  0.00000000E+00
  0.00000000E+00  8.75675088E-01  0.00000000E+00  0.00000000E+00  0.00000000E+00
  0.00000000E+00  0.00000000E+00  0.00000000E+00  0.00000000E+00  0.00000000E+00
  0.00000000E+00  0.00000000E+00  0.00000000E+00  0.00000000E+00  0.00000000E+00
  0.00000000E+00  0.00000000E+00  0.00000000E+00  0.00000000E+00  0.00000000E+00
  0.00000000E+00  0.00000000E+00  0.00000000E+00  0.00000000E+00  0.00000000E+00
  0.00000000E+00  0.00000000E+00 -2.10643248E-02  0.00000000E+00  0.00000000E+00
  0.00000000E+00  0.00000000E+00  1.01079836E+00  0.00000000E+00  0.00000000E+00
  0.00000000E+00  0.00000000E+00  0.00000000E+00  0.00000000E+00  0.00000000E+00
  0.00000000E+00  0.00000000E+00  0.00000000E+00  0.00000000E+00  0.00000000E+00
  0.00000000E+00  0.00000000E+00  0.00000000E+00  0.00000000E+00  0.00000000E+00
  0.00000000E+00  0.00000000E+00  0.00000000E+00  0.00000000E+00 -2.10643248E-02
  0.00000000E+00  0.00000000E+00  0.00000000E+00  0.00000000E+00  1.01079836E+00
  0.00000000E+00  0.00000000E+00  0.00000000E+00  0.00000000E+00  0.00000000E+00
  0.00000000E+00  0.00000000E+00  0.00000000E+00  0.00000000E+00  0.00000000E+00
  0.00000000E+00  0.00000000E+00  0.00000000E+00  0.00000000E+00  0.00000000E+00
  0.00000000E+00  0.00000000E+00  0.00000000E+00  0.00000000E+00  0.00000000E+00
  0.00000000E+00  0.00000000E+00  0.00000000E+00  0.00000000E+00  0.00000000E+00
 -2.12814817E-02  0.00000000E+00  0.00000000E+00  0.00000000E+00  0.00000000E+00
  1.01090800E+00  0.00000000E+00  0.00000000E+00  0.00000000E+00  0.00000000E+00
  0.00000000E+00  0.00000000E+00  0.00000000E+00  0.00000000E+00  0.00000000E+00
  3.66012845E-16 -3.06530108E-15 -1.74829286E-15  6.15353975E-15  0.00000000E+00
  0.00000000E+00  0.00000000E+00  0.00000000E+00  0.00000000E+00  0.00000000E+00
  0.00000000E+00  0.00000000E+00  0.00000000E+00 -1.84303039E-02  0.00000000E+00
  0.00000000E+00 -1.06407409E-02  0.00000000E+00  8.75472009E-01  0.00000000E+00
  0.00000000E+00  5.05454000E-01  0.00000000E+00  0.00000000E+00  0.00000000E+00
  0.00000000E+00  0.00000000E+00  0.00000000E+00  0.00000000E+00  0.00000000E+00
  0.00000000E+00  0.00000000E+00  0.00000000E+00  0.00000000E+00 -1.25879655E+00
  0.00000000E+00  0.00000000E+00  1.47073080E+00  0.00000000E+00  0.00000000E+00
 -6.07842632E-01  0.00000000E+00  0.00000000E+00  0.00000000E+00  0.00000000E+00
  0.00000000E+00  0.00000000E+00  0.00000000E+00  0.00000000E+00  0.00000000E+00
  0.00000000E+00  0.00000000E+00  0.00000000E+00  0.00000000E+00 -1.10559218E-02
  0.00000000E+00  0.00000000E+00  0.00000000E+00  1.42731336E-02  0.00000000E+00
  0.00000000E+00  0.00000000E+00  0.00000000E+00  0.00000000E+00  0.00000000E+00
  0.00000000E+00 -1.25448805E+00  0.00000000E+00  0.00000000E+00  1.47841851E+00
  0.00000000E+00  0.00000000E+00 -6.09742333E-01  0.00000000E+00  0.00000000E+00
  0.00000000E+00  0.00000000E+00  0.00000000E+00  0.00000000E+00  0.00000000E+00
  0.00000000E+00  0.00000000E+00  0.00000000E+00 -1.04025634E-02  0.00000000E+00
  0.00000000E+00  1.34296518E-02  0.00000000E+00  0.00000000E+00  0.00000000E+00
  0.00000000E+00  0.00000000E+00  0.00000000E+00  0.00000000E+00  0.00000000E+00
 -1.25448805E+00  0.00000000E+00  0.00000000E+00  1.47841851E+00  0.00000000E+00
  0.00000000E+00 -6.09742333E-01  0.00000000E+00  0.00000000E+00  0.00000000E+00
  0.00000000E+00  0.00000000E+00  0.00000000E+00  0.00000000E+00  0.00000000E+00
  0.00000000E+00  0.00000000E+00  0.00000000E+00  0.00000000E+00  0.00000000E+00
 -4.24682889E-03  0.00000000E+00  0.00000000E+00  0.00000000E+00  1.64478971E-02
  0.00000000E+00  0.00000000E+00  0.00000000E+00  0.00000000E+00  1.97387384E-02
  0.00000000E+00  0.00000000E+00 -3.16893622E-02  0.00000000E+00  0.00000000E+00
  1.14753184E-02  0.00000000E+00  0.00000000E+00  0.00000000E+00  0.00000000E+00
  0.00000000E+00  0.00000000E+00  0.00000000E+00  0.00000000E+00  0.00000000E+00
  0.00000000E+00  0.00000000E+00  0.00000000E+00  0.00000000E+00 -6.12257262E-01
  0.00000000E+00  0.00000000E+00  0.00000000E+00  7.90420726E-01  0.00000000E+00
  0.00000000E+00  0.00000000E+00  0.00000000E+00  0.00000000E+00  0.00000000E+00
  0.00000000E+00  1.79792659E-02  0.00000000E+00  0.00000000E+00 -3.06626181E-02
  0.00000000E+00  0.00000000E+00  1.11482803E-02  0.00000000E+00  0.00000000E+00
  0.00000000E+00  0.00000000E+00  0.00000000E+00  0.00000000E+00  0.00000000E+00
  0.00000000E+00  0.00000000E+00  0.00000000E+00 -6.12266310E-01  0.00000000E+00
  0.00000000E+00  7.90432399E-01  0.00000000E+00  0.00000000E+00  0.00000000E+00
  0.00000000E+00  0.00000000E+00  0.00000000E+00  0.00000000E+00  0.00000000E+00
  1.79792659E-02  0.00000000E+00  0.00000000E+00 -3.06626181E-02  0.00000000E+00
  0.00000000E+00  1.11482803E-02  0.00000000E+00  0.00000000E+00  0.00000000E+00
  0.00000000E+00  0.00000000E+00  0.00000000E+00  0.00000000E+00  0.00000000E+00
  0.00000000E+00  0.00000000E+00  0.00000000E+00  0.00000000E+00  0.00000000E+00
 -2.49956668E-01  0.00000000E+00  0.00000000E+00  0.00000000E+00  9.68078032E-01
  0.00000000E+00  0.00000000E+00  0.00000000E+00  0.00000000E+00  0.00000000E+00
  0.00000000E+00  0.00000000E+00  0.00000000E+00  0.00000000E+00  0.00000000E+00
  0.00000000E+00  0.00000000E+00  0.00000000E+00  0.00000000E+00  0.00000000E+00
  0.00000000E+00  0.00000000E+00  0.00000000E+00  0.00000000E+00  0.00000000E+00
  0.00000000E+00  0.00000000E+00  0.00000000E+00  0.00000000E+00  0.00000000E+00
  0.00000000E+00  0.00000000E+00  1.00000000E+00  0.00000000E+00  0.00000000E+00
  0.00000000E+00  0.00000000E+00  0.00000000E+00  0.00000000E+00 -9.61345489E-15
  0.00000000E+00  0.00000000E+00  1.34335044E-14  0.00000000E+00  0.00000000E+00
 -6.59417408E-15  0.00000000E+00  0.00000000E+00  0.00000000E+00  0.00000000E+00
  0.00000000E+00  0.00000000E+00  0.00000000E+00  0.00000000E+00  0.00000000E+00
  0.00000000E+00  0.00000000E+00  0.00000000E+00  0.00000000E+00  7.90569415E-01
  0.00000000E+00  0.00000000E+00  0.00000000E+00  6.12372436E-01  0.00000000E+00
  0.00000000E+00  0.00000000E+00  0.00000000E+00  0.00000000E+00  0.00000000E+00
  0.00000000E+00  2.81351530E-10  0.00000000E+00  0.00000000E+00 -2.84671417E-10
  0.00000000E+00  0.00000000E+00  1.08567367E-10  0.00000000E+00  0.00000000E+00
  0.00000000E+00  0.00000000E+00  0.00000000E+00  0.00000000E+00  0.00000000E+00
  0.00000000E+00  0.00000000E+00  0.00000000E+00  7.90569412E-01  0.00000000E+00
  0.00000000E+00  6.12372440E-01  0.00000000E+00  0.00000000E+00  0.00000000E+00
  0.00000000E+00  0.00000000E+00  0.00000000E+00  0.00000000E+00  0.00000000E+00
 -2.81357950E-10  0.00000000E+00  0.00000000E+00  2.84680838E-10  0.00000000E+00
  0.00000000E+00 -1.08572260E-10  0.00000000E+00  0.00000000E+00  0.00000000E+00
  0.00000000E+00  0.00000000E+00  0.00000000E+00  0.00000000E+00  0.00000000E+00
  0.00000000E+00  0.00000000E+00  0.00000000E+00  0.00000000E+00  0.00000000E+00
  9.68245838E-01  0.00000000E+00  0.00000000E+00  0.00000000E+00  2.49999995E-01
  0.00000000E+00  0.00000000E+00  0.00000000E+00  0.00000000E+00  0.00000000E+00
  0.00000000E+00  0.00000000E+00  0.00000000E+00  0.00000000E+00  0.00000000E+00
  0.00000000E+00  0.00000000E+00  0.00000000E+00  0.00000000E+00  0.00000000E+00
  0.00000000E+00  0.00000000E+00  1.17080907E+00  0.00000000E+00  0.00000000E+00
  0.00000000E+00  0.00000000E+00 -5.91205761E-01  0.00000000E+00  0.00000000E+00
  0.00000000E+00  0.00000000E+00  0.00000000E+00  0.00000000E+00  0.00000000E+00
  0.00000000E+00  0.00000000E+00  0.00000000E+00  0.00000000E+00  0.00000000E+00
  0.00000000E+00  0.00000000E+00  0.00000000E+00  0.00000000E+00  0.00000000E+00
  0.00000000E+00  0.00000000E+00  0.00000000E+00  0.00000000E+00  1.17080907E+00
  0.00000000E+00  0.00000000E+00  0.00000000E+00  0.00000000E+00 -5.91205761E-01
  0.00000000E+00  0.00000000E+00  0.00000000E+00  0.00000000E+00  0.00000000E+00
  0.00000000E+00  0.00000000E+00  0.00000000E+00  0.00000000E+00  0.00000000E+00
  1.61878588E-03 -7.09584531E-03 -3.60717794E-03  7.61459709E-03  0.00000000E+00
  0.00000000E+00  0.00000000E+00  0.00000000E+00  0.00000000E+00  0.00000000E+00
  0.00000000E+00  0.00000000E+00  0.00000000E+00 -5.85383525E-01  0.00000000E+00
  0.00000000E+00  1.01391401E+00  0.00000000E+00  2.95148463E-01  0.00000000E+00
  0.00000000E+00 -5.11212133E-01  0.00000000E+00  0.00000000E+00  0.00000000E+00
  0.00000000E+00  0.00000000E+00  0.00000000E+00  0.00000000E+00  0.00000000E+00
  0.00000000E+00  0.00000000E+00  0.00000000E+00  0.00000000E+00  0.00000000E+00
  0.00000000E+00  0.00000000E+00  0.00000000E+00  0.00000000E+00  0.00000000E+00
  0.00000000E+00  0.00000000E+00  0.00000000E+00  0.00000000E+00  0.00000000E+00
  1.17080514E+00  0.00000000E+00  0.00000000E+00  0.00000000E+00  0.00000000E+00
 -5.91018271E-01  0.00000000E+00  0.00000000E+00  0.00000000E+00  0.00000000E+00
  0.00000000E+00  0.00000000E+00  0.00000000E+00  0.00000000E+00  0.00000000E+00
 -9.18245873E-15 -2.05794634E-14  1.86090619E-14  8.48022196E-15  0.00000000E+00
  0.00000000E+00  0.00000000E+00  0.00000000E+00  0.00000000E+00  0.00000000E+00
  0.00000000E+00  0.00000000E+00  0.00000000E+00  1.01394700E+00  0.00000000E+00
  0.00000000E+00  5.85402571E-01  0.00000000E+00 -5.11836837E-01  0.00000000E+00
  0.00000000E+00 -2.95509136E-01  0.00000000E+00  0.00000000E+00  0.00000000E+00
  0.00000000E+00  0.00000000E+00  0.00000000E+00  0.00000000E+00  0.00000000E+00
  1.17821454E+00  2.80636902E+00 -2.42592966E+00 -1.20399731E+00  0.00000000E+00
  0.00000000E+00  0.00000000E+00  0.00000000E+00  0.00000000E+00  0.00000000E+00
  0.00000000E+00  0.00000000E+00  0.00000000E+00  3.85883579E-04  0.00000000E+00
  0.00000000E+00 -6.68369965E-04  0.00000000E+00  1.73647567E-03  0.00000000E+00
  0.00000000E+00 -3.00766409E-03  0.00000000E+00  0.00000000E+00  0.00000000E+00
  0.00000000E+00  0.00000000E+00  0.00000000E+00  0.00000000E+00  0.00000000E+00
Orthonormal basis                          R   N=         900
  1.74311567E-01  3.61568648E-01  3.49818308E-01  3.30932713E-01  0.00000000E+00
  0.00000000E+00  0.00000000E+00  0.00000000E+00  0.00000000E+00  0.00000000E+00
  0.00000000E+00  0.00000000E+00  0.00000000E+00 -8.32404618E-18  0.00000000E+00
  0.00000000E+00  0.00000000E+00  0.00000000E+00 -1.53855632E-17  0.00000000E+00
  0.00000000E+00  0.00000000E+00  0.00000000E+00  0.00000000E+00  0.00000000E+00
  0.00000000E+00  0.00000000E+00  0.00000000E+00  0.00000000E+00  0.00000000E+00
  0.00000000E+00  0.00000000E+00  0.00000000E+00  0.00000000E+00  0.00000000E+00
  0.00000000E+00  0.00000000E+00  0.00000000E+00  0.00000000E+00  0.00000000E+00
  0.00000000E+00  0.00000000E+00  0.00000000E+00  0.00000000E+00  0.00000000E+00
  0.00000000E+00  5.73479176E-01  0.00000000E+00  0.00000000E+00  0.00000000E+00
  0.00000000E+00  5.73479176E-01  0.00000000E+00  0.00000000E+00  0.00000000E+00
  0.00000000E+00  0.00000000E+00  0.00000000E+00  0.00000000E+00  0.00000000E+00
  2.92682927E-15 -1.10842794E-15  8.43057268E-16 -1.18084824E-15  0.00000000E+00
  0.00000000E+00  0.00000000E+00  0.00000000E+00  0.00000000E+00  0.00000000E+00
  0.00000000E+00  0.00000000E+00  0.00000000E+00  5.73479176E-01  0.00000000E+00
  0.00000000E+00  0.00000000E+00  0.00000000E+00  5.73479176E-01  0.00000000E+00
  0.00000000E+00  0.00000000E+00  0.00000000E+00  0.00000000E+00  0.00000000E+00
  0.00000000E+00  0.00000000E+00  0.00000000E+00  0.00000000E+00  0.00000000E+00
  8.24065802E-01 -3.17940944E-01  2.37986096E-01 -3.38251894E-01  0.00000000E+00
  0.00000000E+00  0.00000000E+00  0.00000000E+00  0.00000000E+00  0.00000000E+00
  0.00000000E+00  0.00000000E+00  0.00000000E+00 -2.94160491E-15  0.00000000E+00
  0.00000000E+00  0.00000000E+00  0.00000000E+00 -2.92470221E-15  0.00000000E+00
  0.00000000E+00  0.00000000E+00  0.00000000E+00  0.00000000E+00  0.00000000E+00
  0.00000000E+00  0.00000000E+00  0.00000000E+00  0.00000000E+00  0.00000000E+00
  0.00000000E+00  0.00000000E+00  0.00000000E+00  0.00000000E+00  0.00000000E+00
  0.00000000E+00  0.00000000E+00  0.00000000E+00  0.00000000E+00  0.00000000E+00
  0.00000000E+00  0.00000000E+00  0.00000000E+00  0.00000000E+00  0.00000000E+00
  0.00000000E+00  1.02095995E+00  0.00000000E+00  0.00000000E+00  0.00000000E+00
  0.00000000E+00 -1.02095995E+00  0.00000000E+00  0.00000000E+00  0.00000000E+00
  0.00000000E+00  0.00000000E+00  0.00000000E+00  0.00000000E+00  0.00000000E+00
 -1.41652386E-16 -3.72670905E-18  2.55312316E-16 -2.12983895E-16  0.00000000E+00
  0.00000000E+00  0.00000000E+00  0.00000000E+00  0.00000000E+00  0.00000000E+00
  0.00000000E+00  0.00000000E+00  0.00000000E+00  1.02095995E+00  0.00000000E+00
  0.00000000E+00  0.00000000E+00  0.00000000E+00 -1.02095995E+00  0.00000000E+00
  0.00000000E+00  0.00000000E+00  0.00000000E+00  0.00000000E+00  0.00000000E+00
  0.00000000E+00  0.00000000E+00  0.00000000E+00  0.00000000E+00  0.00000000E+00
  6.31973282E-01 -3.35664534E-01 -1.03444672E+00  1.12734071E+00  0.00000000E+00
  0.00000000E+00  0.00000000E+00  0.00000000E+00  0.00000000E+00  0.00000000E+00
  0.00000000E+00  0.00000000E+00  0.00000000E+00  2.74573635E-16  0.00000000E+00
  0.00000000E+00  0.00000000E+00  0.00000000E+00 -3.05725350E-16  0.00000000E+00
  0.00000000E+00  0.00000000E+00  0.00000000E+00  0.00000000E+00  0.00000000E+00
  0.00000000E+00  0.00000000E+00  0.00000000E+00  0.00000000E+00  0.00000000E+00
  1.13156349E+00  3.11583905E+00 -2.17439723E+00 -1.70182740E+00  0.00000000E+00
  0.00000000E+00  0.00000000E+00  0.00000000E+00  0.00000000E+00  0.00000000E+00
  0.00000000E+00  0.00000000E+00  0.00000000E+00  1.48108151E-16  0.00000000E+00
  0.00000000E+00  0.00000000E+00  0.00000000E+00 -2.08996011E-16  0.00000000E+00
  0.00000000E+00  0.00000000E+00  0.00000000E+00  0.00000000E+00  0.00000000E+00
  0.00000000E+00  0.00000000E+00  0.00000000E+00  0.00000000E+00  0.00000000E+00
  0.00000000E+00  0.00000000E+00  0.00000000E+00  0.00000000E+00  0.00000000E+00
  0.00000000E+00  0.00000000E+00  0.00000000E+00  0.00000000E+00  0.00000000E+00
  0.00000000E+00  0.00000000E+00  0.00000000E+00  0.00000000E+00  0.00000000E+00
  0.00000000E+00  0.00000000E+00  5.73479176E-01  0.00000000E+00  0.00000000E+00
  0.00000000E+00  0.00000000E+00  5.73479176E-01  0.00000000E+00  0.00000000E+00
  0.00000000E+00  0.00000000E+00  0.00000000E+00  0.00000000E+00  0.00000000E+00
  0.00000000E+00  0.00000000E+00  0.00000000E+00  0.00000000E+00  0.00000000E+00
  0.00000000E+00  0.00000000E+00  0.00000000E+00  0.00000000E+00  0.00000000E+00
  0.00000000E+00  0.00000000E+00  0.00000000E+00  0.00000000E+00  0.00000000E+00
  0.00000000E+00  0.00000000E+00  1.02095995E+00  0.00000000E+00  0.00000000E+00
  0.00000000E+00  0.00000000E+00 -1.02095995E+00  0.00000000E+00  0.00000000E+00
  0.00000000E+00  0.00000000E+00  0.00000000E+00  0.00000000E+00  0.00000000E+00
  0.00000000E+00  0.00000000E+00  0.00000000E+00  0.00000000E+00  0.00000000E+00
  0.00000000E+00  0.00000000E+00  0.00000000E+00  0.00000000E+00  0.00000000E+00
  0.00000000E+00  0.00000000E+00  0.00000000E+00  0.00000000E+00  5.73479176E-01