 Entering Gaussian System, Link 0=g16
 Input=h2o_0.com
 Output=h2o_0.log
 Initial command:
 /home/allouche/Softwares/Gaussian16/g16/l1.exe "/home/tmaamaatuai/CdftT/src/applications/testNumeric/Gau-396407.inp" -scrdir="/home/tmaamaatuai/CdftT/src/applications/testNumeric/"
 Entering Link 1 = /home/allouche/Softwares/Gaussian16/g16/l1.exe PID=    396409.
  
 Copyright (c) 1988-2019, Gaussian, Inc.  All Rights Reserved.
  
 This is part of the Gaussian(R) 16 program.  It is based on
 the Gaussian(R) 09 system (copyright 2009, Gaussian, Inc.),
 the Gaussian(R) 03 system (copyright 2003, Gaussian, Inc.),
 the Gaussian(R) 98 system (copyright 1998, Gaussian, Inc.),
 the Gaussian(R) 94 system (copyright 1995, Gaussian, Inc.),
 the Gaussian 92(TM) system (copyright 1992, Gaussian, Inc.),
 the Gaussian 90(TM) system (copyright 1990, Gaussian, Inc.),
 the Gaussian 88(TM) system (copyright 1988, Gaussian, Inc.),
 the Gaussian 86(TM) system (copyright 1986, Carnegie Mellon
 University), and the Gaussian 82(TM) system (copyright 1983,
 Carnegie Mellon University). Gaussian is a federally registered
 trademark of Gaussian, Inc.
  
 This software contains proprietary and confidential information,
 including trade secrets, belonging to Gaussian, Inc.
  
 This software is provided under written license and may be
 used, copied, transmitted, or stored only in accord with that
 written license.
  
 The following legend is applicable only to US Government
 contracts under FAR:
  
                    RESTRICTED RIGHTS LEGEND
  
 Use, reproduction and disclosure by the US Government is
 subject to restrictions as set forth in subparagraphs (a)
 and (c) of the Commercial Computer Software - Restricted
 Rights clause in FAR 52.227-19.
  
 Gaussian, Inc.
 340 Quinnipiac St., Bldg. 40, Wallingford CT 06492
  
  
 ---------------------------------------------------------------
 Warning -- This program may not be used in any manner that
 competes with the business of Gaussian, Inc. or will provide
 assistance to any competitor of Gaussian, Inc.  The licensee
 of this program is prohibited from giving any competitor of
 Gaussian, Inc. access to this program.  By using this program,
 the user acknowledges that Gaussian, Inc. is engaged in the
 business of creating and licensing software in the field of
 computational chemistry and represents and warrants to the
 licensee that it is not a competitor of Gaussian, Inc. and that
 it will not use this program in any manner prohibited above.
 ---------------------------------------------------------------
  

 Cite this work as:
 Gaussian 16, Revision C.01,
 M. J. Frisch, G. W. Trucks, H. B. Schlegel, G. E. Scuseria, 
 M. A. Robb, J. R. Cheeseman, G. Scalmani, V. Barone, 
 G. A. Petersson, H. Nakatsuji, X. Li, M. Caricato, A. V. Marenich, 
 J. Bloino, B. G. Janesko, R. Gomperts, B. Mennucci, H. P. Hratchian, 
 J. V. Ortiz, A. F. Izmaylov, J. L. Sonnenberg, D. Williams-Young, 
 F. Ding, F. Lipparini, F. Egidi, J. Goings, B. Peng, A. Petrone, 
 T. Henderson, D. Ranasinghe, V. G. Zakrzewski, J. Gao, N. Rega, 
 G. Zheng, W. Liang, M. Hada, M. Ehara, K. Toyota, R. Fukuda, 
 J. Hasegawa, M. Ishida, T. Nakajima, Y. Honda, O. Kitao, H. Nakai, 
 T. Vreven, K. Throssell, J. A. Montgomery, Jr., J. E. Peralta, 
 F. Ogliaro, M. J. Bearpark, J. J. Heyd, E. N. Brothers, K. N. Kudin, 
 V. N. Staroverov, T. A. Keith, R. Kobayashi, J. Normand, 
 K. Raghavachari, A. P. Rendell, J. C. Burant, S. S. Iyengar, 
 J. Tomasi, M. Cossi, J. M. Millam, M. Klene, C. Adamo, R. Cammi, 
 J. W. Ochterski, R. L. Martin, K. Morokuma, O. Farkas, 
 J. B. Foresman, and D. J. Fox, Gaussian, Inc., Wallingford CT, 2019.
 
 ******************************************
 Gaussian 16:  ES64L-G16RevC.01  3-Jul-2019
                12-Jun-2024 
 ******************************************
 ----------------------------------------------------------------------
 #P B3LYP/6-311G Cube=(80,Density,Full,Gradient) # Gfinput IOP(6/7=3) P
 op=NPA Test Density=current # Units(Ang,Deg)
 ----------------------------------------------------------------------
 1/30=1,38=1,172=1/1;
 2/12=2,17=6,18=5,40=1/2;
 3/5=4,6=6,11=2,24=10,25=1,30=1,74=-5/1,2,3;
 4//1;
 5/5=2,38=5/2;
 6/7=3,8=2,9=2,10=2,22=-1,23=2,24=2,28=1,40=-1,49=80/1,4,7;
 99/5=1,9=1/99;
 Leave Link    1 at Wed Jun 12 13:44:11 2024, MaxMem=           0 cpu:               0.0 elap:               0.0
 (Enter /home/allouche/Softwares/Gaussian16/g16/l101.exe)
 ----------------------------------
 Input file generated by gabedit...
 ----------------------------------
 Symbolic Z-matrix:
 Charge =  0 Multiplicity = 1
 O                    0     0.       -0.388     0. 
 H                    0     0.751     0.194     0. 
 H                    0    -0.751     0.194     0. 
 
 ITRead=  0  0  0
 MicOpt= -1 -1 -1
 NAtoms=      3 NQM=        3 NQMF=       0 NMMI=      0 NMMIF=      0
                NMic=       0 NMicF=      0.
                    Isotopes and Nuclear Properties:
 (Nuclear quadrupole moments (NQMom) in fm**2, nuclear magnetic moments (NMagM)
  in nuclear magnetons)

  Atom         1           2           3
 IAtWgt=          16           1           1
 AtmWgt=  15.9949146   1.0078250   1.0078250
 NucSpn=           0           1           1
 AtZEff=  -0.0000000  -0.0000000  -0.0000000
 NQMom=    0.0000000   0.0000000   0.0000000
 NMagM=    0.0000000   2.7928460   2.7928460
 AtZNuc=   8.0000000   1.0000000   1.0000000
 Leave Link  101 at Wed Jun 12 13:44:11 2024, MaxMem=   104857600 cpu:               0.0 elap:               0.0
 (Enter /home/allouche/Softwares/Gaussian16/g16/l202.exe)
                          Input orientation:                          
 ---------------------------------------------------------------------
 Center     Atomic      Atomic             Coordinates (Angstroms)
 Number     Number       Type             X           Y           Z
 ---------------------------------------------------------------------
      1          8           0        0.000000   -0.388000    0.000000
      2          1           0        0.751000    0.194000    0.000000
      3          1           0       -0.751000    0.194000    0.000000
 ---------------------------------------------------------------------
                    Distance matrix (angstroms):
                    1          2          3
     1  O    0.000000
     2  H    0.950118   0.000000
     3  H    0.950118   1.502000   0.000000
 Stoichiometry    H2O
 Framework group  C2V[C2(O),SGV(H2)]
 Deg. of freedom     2
 Full point group                 C2V     NOp   4
 Largest Abelian subgroup         C2V     NOp   4
 Largest concise Abelian subgroup C2      NOp   2
                         Standard orientation:                         
 ---------------------------------------------------------------------
 Center     Atomic      Atomic             Coordinates (Angstroms)
 Number     Number       Type             X           Y           Z
 ---------------------------------------------------------------------
      1          8           0       -0.000000    0.000000    0.116400
      2          1           0        0.000000    0.751000   -0.465600
      3          1           0       -0.000000   -0.751000   -0.465600
 ---------------------------------------------------------------------
 Rotational constants (GHZ):         833.4921136         444.5516094         289.9198626
 Leave Link  202 at Wed Jun 12 13:44:11 2024, MaxMem=   104857600 cpu:               0.0 elap:               0.0
 (Enter /home/allouche/Softwares/Gaussian16/g16/l301.exe)
 Standard basis: 6-311G (5D, 7F)
 Ernie: Thresh=  0.10000D-02 Tol=  0.10000D-05 Strict=F.
 AO basis set in the form of general basis input (Overlap normalization):
      1 0
 S   6 1.00       0.000000000000
      0.8588500000D+04  0.1895150083D-02
      0.1297230000D+04  0.1438590063D-01
      0.2992960000D+03  0.7073200310D-01
      0.8737710000D+02  0.2400010105D+00
      0.2567890000D+02  0.5947970261D+00
      0.3740040000D+01  0.2808020123D+00
 SP   3 1.00       0.000000000000
      0.4211750000D+02  0.1138890124D+00  0.3651139738D-01
      0.9628370000D+01  0.9208111006D+00  0.2371529830D+00
      0.2853320000D+01 -0.3274470358D-02  0.8197019412D+00
 SP   1 1.00       0.000000000000
      0.9056610000D+00  0.1000000000D+01  0.1000000000D+01
 SP   1 1.00       0.000000000000
      0.2556110000D+00  0.1000000000D+01  0.1000000000D+01
 ****
      2 0
 S   3 1.00       0.000000000000
      0.3386500000D+02  0.2549381454D-01
      0.5094790000D+01  0.1903731086D+00
      0.1158790000D+01  0.8521614860D+00
 S   1 1.00       0.000000000000
      0.3258400000D+00  0.1000000000D+01
 S   1 1.00       0.000000000000
      0.1027410000D+00  0.1000000000D+01
 ****
      3 0
 S   3 1.00       0.000000000000
      0.3386500000D+02  0.2549381454D-01
      0.5094790000D+01  0.1903731086D+00
      0.1158790000D+01  0.8521614860D+00
 S   1 1.00       0.000000000000
      0.3258400000D+00  0.1000000000D+01
 S   1 1.00       0.000000000000
      0.1027410000D+00  0.1000000000D+01
 ****

 There are    10 symmetry adapted cartesian basis functions of A1  symmetry.
 There are     0 symmetry adapted cartesian basis functions of A2  symmetry.
 There are     3 symmetry adapted cartesian basis functions of B1  symmetry.
 There are     6 symmetry adapted cartesian basis functions of B2  symmetry.
 There are    10 symmetry adapted basis functions of A1  symmetry.
 There are     0 symmetry adapted basis functions of A2  symmetry.
 There are     3 symmetry adapted basis functions of B1  symmetry.
 There are     6 symmetry adapted basis functions of B2  symmetry.
    19 basis functions,    36 primitive gaussians,    19 cartesian basis functions
     5 alpha electrons        5 beta electrons
       nuclear repulsion energy         9.2636625795 Hartrees.
 IExCor=  402 DFT=T Ex+Corr=B3LYP ExCW=0 ScaHFX=  0.200000
 ScaDFX=  0.800000  0.720000  1.000000  0.810000 ScalE2=  1.000000  1.000000
 IRadAn=      5 IRanWt=     -1 IRanGd=            0 ICorTp=0 IEmpDi=  4
 NAtoms=    3 NActive=    3 NUniq=    2 SFac= 2.25D+00 NAtFMM=   60 NAOKFM=F Big=F
 Integral buffers will be    131072 words long.
 Raffenetti 2 integral format.
 Two-electron integral symmetry is turned on.
 Leave Link  301 at Wed Jun 12 13:44:12 2024, MaxMem=   104857600 cpu:               0.0 elap:               0.0
 (Enter /home/allouche/Softwares/Gaussian16/g16/l302.exe)
 NPDir=0 NMtPBC=     1 NCelOv=     1 NCel=       1 NClECP=     1 NCelD=      1
         NCelK=      1 NCelE2=     1 NClLst=     1 CellRange=     0.0.
 One-electron integrals computed using PRISM.
 One-electron integral symmetry used in STVInt
 NBasis=    19 RedAO= T EigKep=  4.22D-02  NBF=    10     0     3     6
 NBsUse=    19 1.00D-06 EigRej= -1.00D+00 NBFU=    10     0     3     6
 Precomputing XC quadrature grid using
 IXCGrd= 4 IRadAn=           5 IRanWt=          -1 IRanGd=           0 AccXCQ= 0.00D+00.
 Generated NRdTot=       0 NPtTot=           0 NUsed=           0 NTot=          32
 NSgBfM=    19    19    19    19    19 MxSgAt=     3 MxSgA2=     3.
 Leave Link  302 at Wed Jun 12 13:44:12 2024, MaxMem=   104857600 cpu:               0.0 elap:               0.0
 (Enter /home/allouche/Softwares/Gaussian16/g16/l303.exe)
 DipDrv:  MaxL=1.
 Leave Link  303 at Wed Jun 12 13:44:12 2024, MaxMem=   104857600 cpu:               0.0 elap:               0.0
 (Enter /home/allouche/Softwares/Gaussian16/g16/l401.exe)
 ExpMin= 1.03D-01 ExpMax= 8.59D+03 ExpMxC= 1.30D+03 IAcc=3 IRadAn=         5 AccDes= 0.00D+00
 Harris functional with IExCor=  402 and IRadAn=       5 diagonalized for initial guess.
 HarFok:  IExCor=  402 AccDes= 0.00D+00 IRadAn=         5 IDoV= 1 UseB2=F ITyADJ=14
 ICtDFT=  3500011 ScaDFX=  1.000000  1.000000  1.000000  1.000000
 FoFCou: FMM=F IPFlag=           0 FMFlag=      100000 FMFlg1=           0
         NFxFlg=           0 DoJE=T BraDBF=F KetDBF=T FulRan=T
         wScrn=  0.000000 ICntrl=       500 IOpCl=  0 I1Cent=   200000004 NGrid=           0
         NMat0=    1 NMatS0=      1 NMatT0=    0 NMatD0=    1 NMtDS0=    0 NMtDT0=    0
 Petite list used in FoFCou.
 Harris En= -76.4681730349074    
 JPrj=0 DoOrth=F DoCkMO=F.
 Initial guess orbital symmetries:
       Occupied  (A1) (A1) (B2) (A1) (B1)
       Virtual   (A1) (B2) (B2) (A1) (B1) (A1) (B2) (A1) (A1) (B2)
                 (B1) (A1) (B2) (A1)
 The electronic state of the initial guess is 1-A1.
 Leave Link  401 at Wed Jun 12 13:44:12 2024, MaxMem=   104857600 cpu:               0.1 elap:               0.1
 (Enter /home/allouche/Softwares/Gaussian16/g16/l502.exe)
 Keep R1 ints in memory in symmetry-blocked form, NReq=882566.
 FoFCou: FMM=F IPFlag=           0 FMFlag=           0 FMFlg1=           0
         NFxFlg=           0 DoJE=F BraDBF=F KetDBF=F FulRan=T
         wScrn=  0.000000 ICntrl=       600 IOpCl=  0 I1Cent=           0 NGrid=           0
         NMat0=    1 NMatS0=    190 NMatT0=    0 NMatD0=    1 NMtDS0=    0 NMtDT0=    0
 Petite list used in FoFCou.
 Closed shell SCF:
 Using DIIS extrapolation, IDIIS=  1040.
 NGot=   104857600 LenX=   104849151 LenY=   104848269
 Requested convergence on RMS density matrix=1.00D-08 within 128 cycles.
 Requested convergence on MAX density matrix=1.00D-06.
 Requested convergence on             energy=1.00D-06.
 No special actions if energy rises.
 Integral accuracy reduced to 1.0D-05 until final iterations.

 Cycle   1  Pass 0  IDiag  1:
 E= -76.3215414030355    
 DIIS: error= 1.03D-01 at cycle   1 NSaved=   1.
 NSaved= 1 IEnMin= 1 EnMin= -76.3215414030355     IErMin= 1 ErrMin= 1.03D-01
 ErrMax= 1.03D-01  0.00D+00 EMaxC= 1.00D-01 BMatC= 1.41D-01 BMatP= 1.41D-01
 IDIUse=3 WtCom= 0.00D+00 WtEn= 1.00D+00
 Coeff-Com:  0.100D+01
 Coeff-En:   0.100D+01
 Coeff:      0.100D+01
 Gap=     0.155 Goal=   None    Shift=    0.000
 GapD=    0.155 DampG=1.000 DampE=0.250 DampFc=0.2500 IDamp=-1.
 Damping current iteration by 2.50D-01
 RMSDP=2.58D-02 MaxDP=2.02D-01              OVMax= 2.20D-01

 Cycle   2  Pass 0  IDiag  1:
 E= -76.3571656829926     Delta-E=       -0.035624279957 Rises=F Damp=T
 DIIS: error= 4.21D-02 at cycle   2 NSaved=   2.
 NSaved= 2 IEnMin= 2 EnMin= -76.3571656829926     IErMin= 2 ErrMin= 4.21D-02
 ErrMax= 4.21D-02  0.00D+00 EMaxC= 1.00D-01 BMatC= 2.14D-02 BMatP= 1.41D-01
 IDIUse=3 WtCom= 5.79D-01 WtEn= 4.21D-01
 Coeff-Com: -0.619D+00 0.162D+01
 Coeff-En:   0.000D+00 0.100D+01
 Coeff:     -0.358D+00 0.136D+01
 Gap=     0.290 Goal=   None    Shift=    0.000
 RMSDP=5.96D-03 MaxDP=3.10D-02 DE=-3.56D-02 OVMax= 1.11D-01

 Cycle   3  Pass 0  IDiag  1:
 E= -76.4097066666494     Delta-E=       -0.052540983657 Rises=F Damp=F
 DIIS: error= 2.21D-02 at cycle   3 NSaved=   3.
 NSaved= 3 IEnMin= 3 EnMin= -76.4097066666494     IErMin= 3 ErrMin= 2.21D-02
 ErrMax= 2.21D-02  0.00D+00 EMaxC= 1.00D-01 BMatC= 7.22D-03 BMatP= 2.14D-02
 IDIUse=3 WtCom= 7.79D-01 WtEn= 2.21D-01
 Coeff-Com:  0.526D+00-0.687D+00 0.116D+01
 Coeff-En:   0.000D+00 0.000D+00 0.100D+01
 Coeff:      0.409D+00-0.535D+00 0.113D+01
 Gap=     0.328 Goal=   None    Shift=    0.000
 RMSDP=2.93D-03 MaxDP=2.34D-02 DE=-5.25D-02 OVMax= 2.38D-02

 Cycle   4  Pass 0  IDiag  1:
 E= -76.4138887140939     Delta-E=       -0.004182047444 Rises=F Damp=F
 DIIS: error= 6.61D-03 at cycle   4 NSaved=   4.
 NSaved= 4 IEnMin= 4 EnMin= -76.4138887140939     IErMin= 4 ErrMin= 6.61D-03
 ErrMax= 6.61D-03  0.00D+00 EMaxC= 1.00D-01 BMatC= 6.62D-04 BMatP= 7.22D-03
 IDIUse=3 WtCom= 9.34D-01 WtEn= 6.61D-02
 Coeff-Com: -0.374D-01 0.513D-01 0.169D+00 0.817D+00
 Coeff-En:   0.000D+00 0.000D+00 0.461D-01 0.954D+00
 Coeff:     -0.350D-01 0.479D-01 0.161D+00 0.826D+00
 Gap=     0.321 Goal=   None    Shift=    0.000
 RMSDP=7.03D-04 MaxDP=5.29D-03 DE=-4.18D-03 OVMax= 5.99D-03

 Cycle   5  Pass 0  IDiag  1:
 E= -76.4143024299370     Delta-E=       -0.000413715843 Rises=F Damp=F
 DIIS: error= 4.23D-04 at cycle   5 NSaved=   5.
 NSaved= 5 IEnMin= 5 EnMin= -76.4143024299370     IErMin= 5 ErrMin= 4.23D-04
 ErrMax= 4.23D-04  0.00D+00 EMaxC= 1.00D-01 BMatC= 2.62D-06 BMatP= 6.62D-04
 IDIUse=3 WtCom= 9.96D-01 WtEn= 4.23D-03
 Coeff-Com: -0.135D-02 0.106D-02 0.652D-02 0.920D-01 0.902D+00
 Coeff-En:   0.000D+00 0.000D+00 0.000D+00 0.000D+00 0.100D+01
 Coeff:     -0.135D-02 0.105D-02 0.650D-02 0.916D-01 0.902D+00
 Gap=     0.322 Goal=   None    Shift=    0.000
 RMSDP=4.14D-05 MaxDP=3.33D-04 DE=-4.14D-04 OVMax= 3.38D-04

 Cycle   6  Pass 0  IDiag  1:
 E= -76.4143040245583     Delta-E=       -0.000001594621 Rises=F Damp=F
 DIIS: error= 1.21D-06 at cycle   6 NSaved=   6.
 NSaved= 6 IEnMin= 6 EnMin= -76.4143040245583     IErMin= 6 ErrMin= 1.21D-06
 ErrMax= 1.21D-06  0.00D+00 EMaxC= 1.00D-01 BMatC= 1.75D-11 BMatP= 2.62D-06
 IDIUse=1 WtCom= 1.00D+00 WtEn= 0.00D+00
 Coeff-Com:  0.505D-05 0.294D-05-0.978D-03-0.497D-02-0.274D-01 0.103D+01
 Coeff:      0.505D-05 0.294D-05-0.978D-03-0.497D-02-0.274D-01 0.103D+01
 Gap=     0.322 Goal=   None    Shift=    0.000
 RMSDP=3.75D-07 MaxDP=2.90D-06 DE=-1.59D-06 OVMax= 3.83D-06

 Initial convergence to 1.0D-05 achieved.  Increase integral accuracy.
 Cycle   7  Pass 1  IDiag  1:
 E= -76.4143051829412     Delta-E=       -0.000001158383 Rises=F Damp=F
 DIIS: error= 3.51D-07 at cycle   1 NSaved=   1.
 NSaved= 1 IEnMin= 1 EnMin= -76.4143051829412     IErMin= 1 ErrMin= 3.51D-07
 ErrMax= 3.51D-07  0.00D+00 EMaxC= 1.00D-01 BMatC= 2.15D-12 BMatP= 2.15D-12
 IDIUse=1 WtCom= 1.00D+00 WtEn= 0.00D+00
 Coeff-Com:  0.100D+01
 Coeff:      0.100D+01
 Gap=     0.322 Goal=   None    Shift=    0.000
 RMSDP=3.75D-07 MaxDP=2.90D-06 DE=-1.16D-06 OVMax= 8.15D-07

 Cycle   8  Pass 1  IDiag  1:
 E= -76.4143051829417     Delta-E=       -0.000000000001 Rises=F Damp=F
 DIIS: error= 3.27D-07 at cycle   2 NSaved=   2.
 NSaved= 2 IEnMin= 2 EnMin= -76.4143051829417     IErMin= 2 ErrMin= 3.27D-07
 ErrMax= 3.27D-07  0.00D+00 EMaxC= 1.00D-01 BMatC= 1.57D-12 BMatP= 2.15D-12
 IDIUse=1 WtCom= 1.00D+00 WtEn= 0.00D+00
 Coeff-Com:  0.449D+00 0.551D+00
 Coeff:      0.449D+00 0.551D+00
 Gap=     0.322 Goal=   None    Shift=    0.000
 RMSDP=4.40D-08 MaxDP=3.13D-07 DE=-5.68D-13 OVMax= 3.87D-07

 Cycle   9  Pass 1  IDiag  1:
 E= -76.4143051829426     Delta-E=       -0.000000000001 Rises=F Damp=F
 DIIS: error= 1.16D-07 at cycle   3 NSaved=   3.
 NSaved= 3 IEnMin= 3 EnMin= -76.4143051829426     IErMin= 3 ErrMin= 1.16D-07
 ErrMax= 1.16D-07  0.00D+00 EMaxC= 1.00D-01 BMatC= 2.03D-13 BMatP= 1.57D-12
 IDIUse=1 WtCom= 1.00D+00 WtEn= 0.00D+00
 Coeff-Com: -0.905D-02 0.262D+00 0.747D+00
 Coeff:     -0.905D-02 0.262D+00 0.747D+00
 Gap=     0.322 Goal=   None    Shift=    0.000
 RMSDP=1.19D-08 MaxDP=9.58D-08 DE=-8.24D-13 OVMax= 1.00D-07

 Cycle  10  Pass 1  IDiag  1:
 E= -76.4143051829429     Delta-E=       -0.000000000000 Rises=F Damp=F
 DIIS: error= 2.12D-09 at cycle   4 NSaved=   4.
 NSaved= 4 IEnMin= 4 EnMin= -76.4143051829429     IErMin= 4 ErrMin= 2.12D-09
 ErrMax= 2.12D-09  0.00D+00 EMaxC= 1.00D-01 BMatC= 7.39D-17 BMatP= 2.03D-13
 IDIUse=1 WtCom= 1.00D+00 WtEn= 0.00D+00
 Coeff-Com: -0.109D-02 0.773D-02 0.579D-02 0.988D+00
 Coeff:     -0.109D-02 0.773D-02 0.579D-02 0.988D+00
 Gap=     0.322 Goal=   None    Shift=    0.000
 RMSDP=4.05D-10 MaxDP=2.55D-09 DE=-3.13D-13 OVMax= 4.77D-09

 SCF Done:  E(RB3LYP) =  -76.4143051829     A.U. after   10 cycles
            NFock= 10  Conv=0.41D-09     -V/T= 2.0002
 KE= 7.640066129300D+01 PE=-1.996330442858D+02 EE= 3.755441523038D+01
 Leave Link  502 at Wed Jun 12 13:44:12 2024, MaxMem=   104857600 cpu:               0.1 elap:               0.2
 (Enter /home/allouche/Softwares/Gaussian16/g16/l601.exe)
 Copying SCF densities to generalized density rwf, IOpCl= 0 IROHF=0.

 **********************************************************************

            Population analysis using the SCF Density.

 **********************************************************************

 Orbital symmetries:
       Occupied  (A1) (A1) (B2) (A1) (B1)
       Virtual   (A1) (B2) (B2) (A1) (B1) (A1) (B2) (A1) (A1) (B2)
                 (B1) (A1) (B2) (A1)
 The electronic state is 1-A1.
 Alpha  occ. eigenvalues --  -19.10728  -1.02856  -0.53910  -0.36454  -0.30075
 Alpha virt. eigenvalues --    0.02092   0.10166   0.37890   0.41569   0.76128
 Alpha virt. eigenvalues --    0.78213   0.89406   1.16332   2.12938   2.16852
 Alpha virt. eigenvalues --    4.74640   4.85925   4.97939  49.73020
     Molecular Orbital Coefficients:
                           1         2         3         4         5
                        (A1)--O   (A1)--O   (B2)--O   (A1)--O   (B1)--O
     Eigenvalues --   -19.10728  -1.02856  -0.53910  -0.36454  -0.30075
   1 1   O  1S          0.55128  -0.11463   0.00000  -0.04934   0.00000
   2        2S          0.46995  -0.18411   0.00000  -0.07999   0.00000
   3        2PX         0.00000   0.00000   0.00000   0.00000   0.30536
   4        2PY         0.00000   0.00000   0.23617   0.00000   0.00000
   5        2PZ        -0.00223  -0.06354   0.00000   0.26004   0.00000
   6        3S          0.01220   0.53584   0.00000   0.23820   0.00000
   7        3PX         0.00000   0.00000   0.00000   0.00000   0.42462
   8        3PY         0.00000   0.00000   0.35954   0.00000   0.00000
   9        3PZ         0.00044  -0.11875   0.00000   0.35898   0.00000
  10        4S         -0.00593   0.40903   0.00000   0.33682   0.00000
  11        4PX         0.00000   0.00000   0.00000   0.00000   0.49521
  12        4PY         0.00000   0.00000   0.20850   0.00000   0.00000
  13        4PZ         0.00083  -0.06667   0.00000   0.37444   0.00000
  14 2   H  1S         -0.00008   0.10765   0.16644  -0.08734   0.00000
  15        2S          0.00087   0.04411   0.19507  -0.10829   0.00000
  16        3S          0.00073   0.00182   0.07319  -0.04221   0.00000
  17 3   H  1S         -0.00008   0.10765  -0.16644  -0.08734   0.00000
  18        2S          0.00087   0.04411  -0.19507  -0.10829   0.00000
  19        3S          0.00073   0.00182  -0.07319  -0.04221   0.00000
                           6         7         8         9        10
                        (A1)--V   (B2)--V   (B2)--V   (A1)--V   (B1)--V
     Eigenvalues --     0.02092   0.10166   0.37890   0.41569   0.76128
   1 1   O  1S         -0.04078   0.00000   0.00000   0.03264   0.00000
   2        2S         -0.06587   0.00000   0.00000   0.05499   0.00000
   3        2PX         0.00000   0.00000   0.00000   0.00000  -0.26842
   4        2PY         0.00000  -0.16538  -0.13286   0.00000   0.00000
   5        2PZ        -0.10543   0.00000   0.00000   0.12641   0.00000
   6        3S          0.17191   0.00000   0.00000  -0.16060   0.00000
   7        3PX         0.00000   0.00000   0.00000   0.00000  -0.80871
   8        3PY         0.00000  -0.22063  -0.20359   0.00000   0.00000
   9        3PZ        -0.17528   0.00000   0.00000   0.21364   0.00000
  10        4S          0.86519   0.00000   0.00000  -1.02920   0.00000
  11        4PX         0.00000   0.00000   0.00000   0.00000   1.12418
  12        4PY         0.00000  -0.55678  -0.93232   0.00000   0.00000
  13        4PZ        -0.25334   0.00000   0.00000   0.85305   0.00000
  14 2   H  1S         -0.04411   0.03381   0.11970   0.10817   0.00000
  15        2S         -0.09392   0.07692   1.37993   1.62857   0.00000
  16        3S         -0.74989   1.39647  -0.98650  -0.70629   0.00000
  17 3   H  1S         -0.04411  -0.03381  -0.11970   0.10817   0.00000
  18        2S         -0.09392  -0.07692  -1.37993   1.62857   0.00000
  19        3S         -0.74989  -1.39647   0.98650  -0.70629   0.00000
                          11        12        13        14        15
                        (A1)--V   (B2)--V   (A1)--V   (A1)--V   (B2)--V
     Eigenvalues --     0.78213   0.89406   1.16332   2.12938   2.16852
   1 1   O  1S          0.02303   0.00000   0.12210  -0.00798   0.00000
   2        2S          0.03865   0.00000   0.24360  -0.00533   0.00000
   3        2PX         0.00000   0.00000   0.00000   0.00000   0.00000
   4        2PY         0.00000  -0.25497   0.00000   0.00000   0.17867
   5        2PZ        -0.24585   0.00000   0.04264  -0.16252   0.00000
   6        3S         -0.12813   0.00000  -1.81121  -0.13174   0.00000
   7        3PX         0.00000   0.00000   0.00000   0.00000   0.00000
   8        3PY         0.00000  -0.84704   0.00000   0.00000  -0.07400
   9        3PZ        -0.79429   0.00000   0.10938   0.00700   0.00000
  10        4S         -0.49736   0.00000   2.95689  -0.45521   0.00000
  11        4PX         0.00000   0.00000   0.00000   0.00000   0.00000
  12        4PY         0.00000   1.78097   0.00000   0.00000  -0.27817
  13        4PZ         1.46929   0.00000  -0.80159   0.38087   0.00000
  14 2   H  1S          0.04189  -0.00271   0.01324  -1.08775  -1.10173
  15        2S          0.45000  -0.28686  -0.75693   1.63803   1.69042
  16        3S          0.04877  -0.78161  -0.33139  -0.52271  -0.85115
  17 3   H  1S          0.04189   0.00271   0.01324  -1.08775   1.10173
  18        2S          0.45000   0.28686  -0.75693   1.63803  -1.69042
  19        3S          0.04877   0.78161  -0.33139  -0.52271   0.85115
                          16        17        18        19
                        (B1)--V   (A1)--V   (B2)--V   (A1)--V
     Eigenvalues --     4.74640   4.85925   4.97939  49.73020
   1 1   O  1S          0.00000   0.00513   0.00000  -2.24591
   2        2S          0.00000   0.01205   0.00000   2.32999
   3        2PX        -1.26170   0.00000   0.00000   0.00000
   4        2PY         0.00000   0.00000  -1.27239   0.00000
   5        2PZ         0.00000  -1.26285   0.00000  -0.00458
   6        3S          0.00000  -0.08486   0.00000  -0.24856
   7        3PX         1.39194   0.00000   0.00000   0.00000
   8        3PY         0.00000   0.00000   1.50746   0.00000
   9        3PZ         0.00000   1.43712   0.00000   0.01472
  10        4S          0.00000   0.35341   0.00000   0.24903
  11        4PX        -0.54294   0.00000   0.00000   0.00000
  12        4PY         0.00000   0.00000  -0.84177   0.00000
  13        4PZ         0.00000  -0.71298   0.00000  -0.05273
  14 2   H  1S          0.00000   0.23988  -0.27200   0.00606
  15        2S          0.00000  -0.37532   0.33149  -0.04434
  16        3S          0.00000   0.02166   0.17080  -0.03119
  17 3   H  1S          0.00000   0.23988   0.27200   0.00606
  18        2S          0.00000  -0.37532  -0.33149  -0.04434
  19        3S          0.00000   0.02166  -0.17080  -0.03119
          Condensed to atoms (all electrons):
               1          2          3
     1  O    8.244621   0.248430   0.248430
     2  H    0.248430   0.427197  -0.046368
     3  H    0.248430  -0.046368   0.427197
 Mulliken charges:
               1
     1  O   -0.741481
     2  H    0.370741
     3  H    0.370741
 Sum of Mulliken charges =  -0.00000
 Mulliken charges with hydrogens summed into heavy atoms:
               1
     1  O   -0.000000
 Electronic spatial extent (au):  <R**2>=             19.2599
 Charge=             -0.0000 electrons
 Dipole moment (field-independent basis, Debye):
    X=             -0.0000    Y=              0.0000    Z=             -2.5146  Tot=              2.5146
 Quadrupole moment (field-independent basis, Debye-Ang):
   XX=             -7.3086   YY=             -4.3321   ZZ=             -6.2433
   XY=              0.0000   XZ=              0.0000   YZ=              0.0000
 Traceless Quadrupole moment (field-independent basis, Debye-Ang):
   XX=             -1.3473   YY=              1.6293   ZZ=             -0.2820
   XY=              0.0000   XZ=              0.0000   YZ=              0.0000
 Octapole moment (field-independent basis, Debye-Ang**2):
  XXX=              0.0000  YYY=              0.0000  ZZZ=             -1.4729  XYY=             -0.0000
  XXY=              0.0000  XXZ=             -0.4254  XZZ=             -0.0000  YZZ=             -0.0000
  YYZ=             -1.1526  XYZ=             -0.0000
 Hexadecapole moment (field-independent basis, Debye-Ang**3):
 XXXX=             -5.5059 YYYY=             -6.0724 ZZZZ=             -6.5070 XXXY=             -0.0000
 XXXZ=             -0.0000 YYYX=             -0.0000 YYYZ=             -0.0000 ZZZX=             -0.0000
 ZZZY=              0.0000 XXYY=             -2.1373 XXZZ=             -2.0472 YYZZ=             -1.8257
 XXYZ=              0.0000 YYXZ=              0.0000 ZZXY=             -0.0000
 N-N= 9.263662579486D+00 E-N=-1.996330442312D+02  KE= 7.640066129300D+01
 Symmetry A1   KE= 6.809886618552D+01
 Symmetry A2   KE= 0.000000000000D+00
 Symmetry B1   KE= 4.687334219847D+00
 Symmetry B2   KE= 3.614460887633D+00
 Orbital energies and kinetic energies (alpha):
                                 1                 2
   1         (A1)--O         -19.107279         29.133285
   2         (A1)--O          -1.028558          2.629060
   3         (B2)--O          -0.539096          1.807230
   4         (A1)--O          -0.364536          2.287089
   5         (B1)--O          -0.300753          2.343667
   6         (A1)--V           0.020923          0.828963
   7         (B2)--V           0.101662          0.879625
   8         (B2)--V           0.378897          1.310953
   9         (A1)--V           0.415686          1.530727
  10         (B1)--V           0.761285          2.634245
  11         (A1)--V           0.782125          2.523930
  12         (B2)--V           0.894065          2.635551
  13         (A1)--V           1.163318          4.312165
  14         (A1)--V           2.129379          4.055418
  15         (B2)--V           2.168519          4.045230
  16         (B1)--V           4.746402         11.619852
  17         (A1)--V           4.859247         11.713025
  18         (B2)--V           4.979389         11.847545
  19         (A1)--V          49.730200        123.787279
 Total kinetic energy from orbitals= 7.640066129300D+01
 No NMR shielding tensors so no spin-rotation constants.
 Leave Link  601 at Wed Jun 12 13:44:12 2024, MaxMem=   104857600 cpu:               0.0 elap:               0.0
 (Enter /home/allouche/Softwares/Gaussian16/g16/l604.exe)
 Evaluate density and density gradient.
 Using the total density.
 Map the density over a grid of points, CutOff= 1.00D-06
 Writing cube to file h2o_0_Grad80.cube.
 IGUnit=  -31 Origin=   -2.630400   -2.630400   -2.514000 NVal=    4
     N1=   80 XYZInc=    0.066592    0.000000    0.000000
     N2=   80 XYZInc=    0.000000    0.066592    0.000000
     N3=   80 XYZInc=    0.000000    0.000000    0.066592
 Using the SCF density.
 There are    512000 points.  Will hold    317680 in memory.
 LenV=    78489780 MDV=   104857600.
 Integrated density= 9.9384002608486455D+00 error=-6.1599739151354527D-02
 Integrated density gradient=
-6.0897677815753212D-03-1.3470681100541946D+00 1.3545788181885319D+00
 Leave Link  604 at Wed Jun 12 13:44:13 2024, MaxMem=   104857600 cpu:               0.9 elap:               1.2
 (Enter /home/allouche/Softwares/Gaussian16/g16/l607.exe)
 ******************************Gaussian NBO Version 3.1******************************
             N A T U R A L   A T O M I C   O R B I T A L   A N D
          N A T U R A L   B O N D   O R B I T A L   A N A L Y S I S
 ******************************Gaussian NBO Version 3.1******************************
       /RESON  / : Allow strongly delocalized NBO set

 Analyzing the SCF density

 Job title: Input file generated by gabedit...                              

 Storage needed:      1243 in NPA ( 104857537 available)


 NATURAL POPULATIONS:  Natural atomic orbital occupancies 
                                                          
   NAO  Atom  No  lang   Type(AO)    Occupancy      Energy
 ----------------------------------------------------------
     1    O    1  S      Cor( 1S)     1.99982     -18.87942
     2    O    1  S      Val( 2S)     1.75183      -0.94933
     3    O    1  S      Ryd( 3S)     0.00113       1.14959
     4    O    1  S      Ryd( 4S)     0.00000      49.66512
     5    O    1  px     Val( 2p)     1.99899      -0.30018
     6    O    1  px     Ryd( 3p)     0.00100       0.76616
     7    O    1  px     Ryd( 4p)     0.00001       4.74096
     8    O    1  py     Val( 2p)     1.41332      -0.26265
     9    O    1  py     Ryd( 3p)     0.00294       0.76389
    10    O    1  py     Ryd( 4p)     0.00001       4.89896
    11    O    1  pz     Val( 2p)     1.69226      -0.28559
    12    O    1  pz     Ryd( 3p)     0.00054       0.80214
    13    O    1  pz     Ryd( 4p)     0.00014       4.80724

    14    H    2  S      Val( 1S)     0.56579       0.08342
    15    H    2  S      Ryd( 2S)     0.00313       0.45491
    16    H    2  S      Ryd( 3S)     0.00008       1.89867

    17    H    3  S      Val( 1S)     0.56579       0.08342
    18    H    3  S      Ryd( 2S)     0.00313       0.45491
    19    H    3  S      Ryd( 3S)     0.00008       1.89867


 Summary of Natural Population Analysis:                  
                                                          
                                       Natural Population 
                Natural  -----------------------------------------------
    Atom  No    Charge         Core      Valence    Rydberg      Total
 -----------------------------------------------------------------------
      O    1   -0.86200      1.99982     6.85641    0.00577     8.86200
      H    2    0.43100      0.00000     0.56579    0.00321     0.56900
      H    3    0.43100      0.00000     0.56579    0.00321     0.56900
 =======================================================================
   * Total *   -0.00000      1.99982     7.98798    0.01220    10.00000

                                 Natural Population      
 --------------------------------------------------------
   Core                       1.99982 ( 99.9912% of   2)
   Valence                    7.98798 ( 99.8497% of   8)
   Natural Minimal Basis      9.98780 ( 99.8780% of  10)
   Natural Rydberg Basis      0.01220 (  0.1220% of  10)
 --------------------------------------------------------

    Atom  No          Natural Electron Configuration
 ----------------------------------------------------------------------------
      O    1      [core]2S( 1.75)2p( 5.10)
      H    2            1S( 0.57)
      H    3            1S( 0.57)


 NBO analysis skipped by request.
 Leave Link  607 at Wed Jun 12 13:44:13 2024, MaxMem=   104857600 cpu:               0.1 elap:               0.1
 (Enter /home/allouche/Softwares/Gaussian16/g16/l9999.exe)

 Test job not archived.
 1\1\GINC-ILMFIXE1061\SP\RB3LYP\6-311G\H2O1\TMAAMAATUAI\12-Jun-2024\0\\
 #P B3LYP/6-311G Cube=(80,Density,Full,Gradient) # Gfinput IOP(6/7=3) P
 op=NPA Test Density=current # Units(Ang,Deg)\\Input file generated by 
 gabedit...\\0,1\O,0,0.,-0.388,0.\H,0,0.751,0.194,0.\H,0,-0.751,0.194,0
 .\\Version=ES64L-G16RevC.01\State=1-A1\HF=-76.4143052\RMSD=4.053e-10\D
 ipole=0.,0.9893361,0.\Quadrupole=1.2113292,-0.2096504,-1.0016788,0.,0.
 ,0.\PG=C02V [C2(O1),SGV(H2)]\\@


 "I COULD HAVE DONE IT IN A MUCH MORE COMPLICATED WAY"
 SAID THE RED QUEEN, IMMENSELY PROUD.

                                      -- LEWIS CARROLL
 Job cpu time:       0 days  0 hours  0 minutes  1.5 seconds.
 Elapsed time:       0 days  0 hours  0 minutes  1.9 seconds.
 File lengths (MBytes):  RWF=     17 Int=      0 D2E=      0 Chk=      2 Scr=      2
 Normal termination of Gaussian 16 at Wed Jun 12 13:44:13 2024.
