 Entering Gaussian System, Link 0=g16
 Input=h2o_p.com
 Output=h2o_p.log
 Initial command:
 /home/allouche/Softwares/Gaussian16/g16/l1.exe "/home/tmaamaatuai/CdftT/src/applications/testNumeric/Gau-396443.inp" -scrdir="/home/tmaamaatuai/CdftT/src/applications/testNumeric/"
 Entering Link 1 = /home/allouche/Softwares/Gaussian16/g16/l1.exe PID=    396445.
  
 Copyright (c) 1988-2019, Gaussian, Inc.  All Rights Reserved.
  
 This is part of the Gaussian(R) 16 program.  It is based on
 the Gaussian(R) 09 system (copyright 2009, Gaussian, Inc.),
 the Gaussian(R) 03 system (copyright 2003, Gaussian, Inc.),
 the Gaussian(R) 98 system (copyright 1998, Gaussian, Inc.),
 the Gaussian(R) 94 system (copyright 1995, Gaussian, Inc.),
 the Gaussian 92(TM) system (copyright 1992, Gaussian, Inc.),
 the Gaussian 90(TM) system (copyright 1990, Gaussian, Inc.),
 the Gaussian 88(TM) system (copyright 1988, Gaussian, Inc.),
 the Gaussian 86(TM) system (copyright 1986, Carnegie Mellon
 University), and the Gaussian 82(TM) system (copyright 1983,
 Carnegie Mellon University). Gaussian is a federally registered
 trademark of Gaussian, Inc.
  
 This software contains proprietary and confidential information,
 including trade secrets, belonging to Gaussian, Inc.
  
 This software is provided under written license and may be
 used, copied, transmitted, or stored only in accord with that
 written license.
  
 The following legend is applicable only to US Government
 contracts under FAR:
  
                    RESTRICTED RIGHTS LEGEND
  
 Use, reproduction and disclosure by the US Government is
 subject to restrictions as set forth in subparagraphs (a)
 and (c) of the Commercial Computer Software - Restricted
 Rights clause in FAR 52.227-19.
  
 Gaussian, Inc.
 340 Quinnipiac St., Bldg. 40, Wallingford CT 06492
  
  
 ---------------------------------------------------------------
 Warning -- This program may not be used in any manner that
 competes with the business of Gaussian, Inc. or will provide
 assistance to any competitor of Gaussian, Inc.  The licensee
 of this program is prohibited from giving any competitor of
 Gaussian, Inc. access to this program.  By using this program,
 the user acknowledges that Gaussian, Inc. is engaged in the
 business of creating and licensing software in the field of
 computational chemistry and represents and warrants to the
 licensee that it is not a competitor of Gaussian, Inc. and that
 it will not use this program in any manner prohibited above.
 ---------------------------------------------------------------
  

 Cite this work as:
 Gaussian 16, Revision C.01,
 M. J. Frisch, G. W. Trucks, H. B. Schlegel, G. E. Scuseria, 
 M. A. Robb, J. R. Cheeseman, G. Scalmani, V. Barone, 
 G. A. Petersson, H. Nakatsuji, X. Li, M. Caricato, A. V. Marenich, 
 J. Bloino, B. G. Janesko, R. Gomperts, B. Mennucci, H. P. Hratchian, 
 J. V. Ortiz, A. F. Izmaylov, J. L. Sonnenberg, D. Williams-Young, 
 F. Ding, F. Lipparini, F. Egidi, J. Goings, B. Peng, A. Petrone, 
 T. Henderson, D. Ranasinghe, V. G. Zakrzewski, J. Gao, N. Rega, 
 G. Zheng, W. Liang, M. Hada, M. Ehara, K. Toyota, R. Fukuda, 
 J. Hasegawa, M. Ishida, T. Nakajima, Y. Honda, O. Kitao, H. Nakai, 
 T. Vreven, K. Throssell, J. A. Montgomery, Jr., J. E. Peralta, 
 F. Ogliaro, M. J. Bearpark, J. J. Heyd, E. N. Brothers, K. N. Kudin, 
 V. N. Staroverov, T. A. Keith, R. Kobayashi, J. Normand, 
 K. Raghavachari, A. P. Rendell, J. C. Burant, S. S. Iyengar, 
 J. Tomasi, M. Cossi, J. M. Millam, M. Klene, C. Adamo, R. Cammi, 
 J. W. Ochterski, R. L. Martin, K. Morokuma, O. Farkas, 
 J. B. Foresman, and D. J. Fox, Gaussian, Inc., Wallingford CT, 2019.
 
 ******************************************
 Gaussian 16:  ES64L-G16RevC.01  3-Jul-2019
                12-Jun-2024 
 ******************************************
 ----------------------------------------------------------------------
 #P B3LYP/6-311G Cube=(80,Density,Full,Gradient) # Gfinput IOP(6/7=3) P
 op=NPA Test Density=current # Units(Ang,Deg)
 ----------------------------------------------------------------------
 1/30=1,38=1,172=1/1;
 2/12=2,17=6,18=5,40=1/2;
 3/5=4,6=6,11=2,24=10,25=1,30=1,74=-5/1,2,3;
 4//1;
 5/5=2,38=5/2;
 6/7=3,8=2,9=2,10=2,22=-1,23=2,24=2,28=1,40=-1,49=80/1,4,7;
 99/5=1,9=1/99;
 Leave Link    1 at Wed Jun 12 13:44:21 2024, MaxMem=           0 cpu:               0.0 elap:               0.0
 (Enter /home/allouche/Softwares/Gaussian16/g16/l101.exe)
 ----------------------------------
 Input file generated by gabedit...
 ----------------------------------
 Symbolic Z-matrix:
 Charge =  1 Multiplicity = 2
 O                    0     0.       -0.388     0. 
 H                    0     0.751     0.194     0. 
 H                    0    -0.751     0.194     0. 
 
 ITRead=  0  0  0
 MicOpt= -1 -1 -1
 NAtoms=      3 NQM=        3 NQMF=       0 NMMI=      0 NMMIF=      0
                NMic=       0 NMicF=      0.
                    Isotopes and Nuclear Properties:
 (Nuclear quadrupole moments (NQMom) in fm**2, nuclear magnetic moments (NMagM)
  in nuclear magnetons)

  Atom         1           2           3
 IAtWgt=          16           1           1
 AtmWgt=  15.9949146   1.0078250   1.0078250
 NucSpn=           0           1           1
 AtZEff=  -0.0000000  -0.0000000  -0.0000000
 NQMom=    0.0000000   0.0000000   0.0000000
 NMagM=    0.0000000   2.7928460   2.7928460
 AtZNuc=   8.0000000   1.0000000   1.0000000
 Leave Link  101 at Wed Jun 12 13:44:21 2024, MaxMem=   104857600 cpu:               0.0 elap:               0.0
 (Enter /home/allouche/Softwares/Gaussian16/g16/l202.exe)
                          Input orientation:                          
 ---------------------------------------------------------------------
 Center     Atomic      Atomic             Coordinates (Angstroms)
 Number     Number       Type             X           Y           Z
 ---------------------------------------------------------------------
      1          8           0        0.000000   -0.388000    0.000000
      2          1           0        0.751000    0.194000    0.000000
      3          1           0       -0.751000    0.194000    0.000000
 ---------------------------------------------------------------------
                    Distance matrix (angstroms):
                    1          2          3
     1  O    0.000000
     2  H    0.950118   0.000000
     3  H    0.950118   1.502000   0.000000
 Stoichiometry    H2O(1+,2)
 Framework group  C2V[C2(O),SGV(H2)]
 Deg. of freedom     2
 Full point group                 C2V     NOp   4
 Largest Abelian subgroup         C2V     NOp   4
 Largest concise Abelian subgroup C2      NOp   2
                         Standard orientation:                         
 ---------------------------------------------------------------------
 Center     Atomic      Atomic             Coordinates (Angstroms)
 Number     Number       Type             X           Y           Z
 ---------------------------------------------------------------------
      1          8           0       -0.000000    0.000000    0.116400
      2          1           0        0.000000    0.751000   -0.465600
      3          1           0       -0.000000   -0.751000   -0.465600
 ---------------------------------------------------------------------
 Rotational constants (GHZ):         833.4921136         444.5516094         289.9198626
 Leave Link  202 at Wed Jun 12 13:44:21 2024, MaxMem=   104857600 cpu:               0.0 elap:               0.0
 (Enter /home/allouche/Softwares/Gaussian16/g16/l301.exe)
 Standard basis: 6-311G (5D, 7F)
 Ernie: Thresh=  0.10000D-02 Tol=  0.10000D-05 Strict=F.
 AO basis set in the form of general basis input (Overlap normalization):
      1 0
 S   6 1.00       0.000000000000
      0.8588500000D+04  0.1895150083D-02
      0.1297230000D+04  0.1438590063D-01
      0.2992960000D+03  0.7073200310D-01
      0.8737710000D+02  0.2400010105D+00
      0.2567890000D+02  0.5947970261D+00
      0.3740040000D+01  0.2808020123D+00
 SP   3 1.00       0.000000000000
      0.4211750000D+02  0.1138890124D+00  0.3651139738D-01
      0.9628370000D+01  0.9208111006D+00  0.2371529830D+00
      0.2853320000D+01 -0.3274470358D-02  0.8197019412D+00
 SP   1 1.00       0.000000000000
      0.9056610000D+00  0.1000000000D+01  0.1000000000D+01
 SP   1 1.00       0.000000000000
      0.2556110000D+00  0.1000000000D+01  0.1000000000D+01
 ****
      2 0
 S   3 1.00       0.000000000000
      0.3386500000D+02  0.2549381454D-01
      0.5094790000D+01  0.1903731086D+00
      0.1158790000D+01  0.8521614860D+00
 S   1 1.00       0.000000000000
      0.3258400000D+00  0.1000000000D+01
 S   1 1.00       0.000000000000
      0.1027410000D+00  0.1000000000D+01
 ****
      3 0
 S   3 1.00       0.000000000000
      0.3386500000D+02  0.2549381454D-01
      0.5094790000D+01  0.1903731086D+00
      0.1158790000D+01  0.8521614860D+00
 S   1 1.00       0.000000000000
      0.3258400000D+00  0.1000000000D+01
 S   1 1.00       0.000000000000
      0.1027410000D+00  0.1000000000D+01
 ****

 There are    10 symmetry adapted cartesian basis functions of A1  symmetry.
 There are     0 symmetry adapted cartesian basis functions of A2  symmetry.
 There are     3 symmetry adapted cartesian basis functions of B1  symmetry.
 There are     6 symmetry adapted cartesian basis functions of B2  symmetry.
 There are    10 symmetry adapted basis functions of A1  symmetry.
 There are     0 symmetry adapted basis functions of A2  symmetry.
 There are     3 symmetry adapted basis functions of B1  symmetry.
 There are     6 symmetry adapted basis functions of B2  symmetry.
    19 basis functions,    36 primitive gaussians,    19 cartesian basis functions
     5 alpha electrons        4 beta electrons
       nuclear repulsion energy         9.2636625795 Hartrees.
 IExCor=  402 DFT=T Ex+Corr=B3LYP ExCW=0 ScaHFX=  0.200000
 ScaDFX=  0.800000  0.720000  1.000000  0.810000 ScalE2=  1.000000  1.000000
 IRadAn=      5 IRanWt=     -1 IRanGd=            0 ICorTp=0 IEmpDi=  4
 NAtoms=    3 NActive=    3 NUniq=    2 SFac= 2.25D+00 NAtFMM=   60 NAOKFM=F Big=F
 Integral buffers will be    131072 words long.
 Raffenetti 2 integral format.
 Two-electron integral symmetry is turned on.
 Leave Link  301 at Wed Jun 12 13:44:21 2024, MaxMem=   104857600 cpu:               0.0 elap:               0.0
 (Enter /home/allouche/Softwares/Gaussian16/g16/l302.exe)
 NPDir=0 NMtPBC=     1 NCelOv=     1 NCel=       1 NClECP=     1 NCelD=      1
         NCelK=      1 NCelE2=     1 NClLst=     1 CellRange=     0.0.
 One-electron integrals computed using PRISM.
 One-electron integral symmetry used in STVInt
 NBasis=    19 RedAO= T EigKep=  4.22D-02  NBF=    10     0     3     6
 NBsUse=    19 1.00D-06 EigRej= -1.00D+00 NBFU=    10     0     3     6
 Precomputing XC quadrature grid using
 IXCGrd= 4 IRadAn=           5 IRanWt=          -1 IRanGd=           0 AccXCQ= 0.00D+00.
 Generated NRdTot=       0 NPtTot=           0 NUsed=           0 NTot=          32
 NSgBfM=    19    19    19    19    19 MxSgAt=     3 MxSgA2=     3.
 Leave Link  302 at Wed Jun 12 13:44:21 2024, MaxMem=   104857600 cpu:               0.0 elap:               0.0
 (Enter /home/allouche/Softwares/Gaussian16/g16/l303.exe)
 DipDrv:  MaxL=1.
 Leave Link  303 at Wed Jun 12 13:44:21 2024, MaxMem=   104857600 cpu:               0.0 elap:               0.0
 (Enter /home/allouche/Softwares/Gaussian16/g16/l401.exe)
 ExpMin= 1.03D-01 ExpMax= 8.59D+03 ExpMxC= 1.30D+03 IAcc=3 IRadAn=         5 AccDes= 0.00D+00
 Harris functional with IExCor=  402 and IRadAn=       5 diagonalized for initial guess.
 HarFok:  IExCor=  402 AccDes= 0.00D+00 IRadAn=         5 IDoV= 1 UseB2=F ITyADJ=14
 ICtDFT=  3500011 ScaDFX=  1.000000  1.000000  1.000000  1.000000
 FoFCou: FMM=F IPFlag=           0 FMFlag=      100000 FMFlg1=           0
         NFxFlg=           0 DoJE=T BraDBF=F KetDBF=T FulRan=T
         wScrn=  0.000000 ICntrl=       500 IOpCl=  0 I1Cent=   200000004 NGrid=           0
         NMat0=    1 NMatS0=      1 NMatT0=    0 NMatD0=    1 NMtDS0=    0 NMtDT0=    0
 Petite list used in FoFCou.
 Harris En= -76.0678657808975    
 JPrj=0 DoOrth=F DoCkMO=F.
 Initial guess orbital symmetries:
 Alpha Orbitals:
       Occupied  (A1) (A1) (B2) (A1) (B1)
       Virtual   (A1) (B2) (B2) (A1) (B1) (A1) (B2) (A1) (A1) (B2)
                 (B1) (A1) (B2) (A1)
 Beta  Orbitals:
       Occupied  (A1) (A1) (B2) (A1)
       Virtual   (B1) (A1) (B2) (B2) (A1) (B1) (A1) (B2) (A1) (A1)
                 (B2) (B1) (A1) (B2) (A1)
 The electronic state of the initial guess is 2-B1.
 Initial guess <Sx>= 0.0000 <Sy>= 0.0000 <Sz>= 0.5000 <S**2>= 0.7500 S= 0.5000
 Leave Link  401 at Wed Jun 12 13:44:21 2024, MaxMem=   104857600 cpu:               0.1 elap:               0.1
 (Enter /home/allouche/Softwares/Gaussian16/g16/l502.exe)
 Keep R1 and R2 ints in memory in symmetry-blocked form, NReq=882566.
 FoFCou: FMM=F IPFlag=           0 FMFlag=           0 FMFlg1=           0
         NFxFlg=           0 DoJE=F BraDBF=F KetDBF=F FulRan=T
         wScrn=  0.000000 ICntrl=       600 IOpCl=  0 I1Cent=           0 NGrid=           0
         NMat0=    1 NMatS0=    190 NMatT0=    0 NMatD0=    1 NMtDS0=    0 NMtDT0=    0
 Petite list used in FoFCou.
 UHF open shell SCF:
 Using DIIS extrapolation, IDIIS=  1040.
 NGot=   104857600 LenX=   104843282 LenY=   104842400
 Requested convergence on RMS density matrix=1.00D-08 within 128 cycles.
 Requested convergence on MAX density matrix=1.00D-06.
 Requested convergence on             energy=1.00D-06.
 No special actions if energy rises.
 Integral accuracy reduced to 1.0D-05 until final iterations.

 Cycle   1  Pass 0  IDiag  1:
 E= -75.9434863960360    
 DIIS: error= 2.27D-02 at cycle   1 NSaved=   1.
 NSaved= 1 IEnMin= 1 EnMin= -75.9434863960360     IErMin= 1 ErrMin= 2.27D-02
 ErrMax= 2.27D-02  0.00D+00 EMaxC= 1.00D-01 BMatC= 3.32D-02 BMatP= 3.32D-02
 IDIUse=3 WtCom= 7.73D-01 WtEn= 2.27D-01
 Coeff-Com:  0.100D+01
 Coeff-En:   0.100D+01
 Coeff:      0.100D+01
 Gap=     0.581 Goal=   None    Shift=    0.000
 Gap=     0.209 Goal=   None    Shift=    0.000
 GapD=    0.209 DampG=1.000 DampE=0.500 DampFc=0.5000 IDamp=-1.
 Damping current iteration by 5.00D-01
 RMSDP=5.26D-03 MaxDP=4.50D-02              OVMax= 4.60D-02

 Cycle   2  Pass 0  IDiag  1:
 E= -75.9474014843343     Delta-E=       -0.003915088298 Rises=F Damp=T
 DIIS: error= 1.22D-02 at cycle   2 NSaved=   2.
 NSaved= 2 IEnMin= 2 EnMin= -75.9474014843343     IErMin= 2 ErrMin= 1.22D-02
 ErrMax= 1.22D-02  0.00D+00 EMaxC= 1.00D-01 BMatC= 8.65D-03 BMatP= 3.32D-02
 IDIUse=3 WtCom= 8.78D-01 WtEn= 1.22D-01
 Coeff-Com: -0.721D+00 0.172D+01
 Coeff-En:   0.000D+00 0.100D+01
 Coeff:     -0.634D+00 0.163D+01
 Gap=     0.557 Goal=   None    Shift=    0.000
 Gap=     0.207 Goal=   None    Shift=    0.000
 RMSDP=2.61D-03 MaxDP=1.77D-02 DE=-3.92D-03 OVMax= 1.60D-02

 Cycle   3  Pass 0  IDiag  1:
 E= -75.9511651330209     Delta-E=       -0.003763648687 Rises=F Damp=F
 DIIS: error= 7.00D-03 at cycle   3 NSaved=   3.
 NSaved= 3 IEnMin= 3 EnMin= -75.9511651330209     IErMin= 3 ErrMin= 7.00D-03
 ErrMax= 7.00D-03  0.00D+00 EMaxC= 1.00D-01 BMatC= 2.05D-03 BMatP= 8.65D-03
 IDIUse=3 WtCom= 9.30D-01 WtEn= 7.00D-02
 Coeff-Com: -0.405D+00 0.815D+00 0.590D+00
 Coeff-En:   0.000D+00 0.000D+00 0.100D+01
 Coeff:     -0.377D+00 0.758D+00 0.619D+00
 Gap=     0.567 Goal=   None    Shift=    0.000
 Gap=     0.208 Goal=   None    Shift=    0.000
 RMSDP=6.26D-04 MaxDP=5.69D-03 DE=-3.76D-03 OVMax= 7.25D-03

 Cycle   4  Pass 0  IDiag  1:
 E= -75.9515033050401     Delta-E=       -0.000338172019 Rises=F Damp=F
 DIIS: error= 1.19D-03 at cycle   4 NSaved=   4.
 NSaved= 4 IEnMin= 4 EnMin= -75.9515033050401     IErMin= 4 ErrMin= 1.19D-03
 ErrMax= 1.19D-03  0.00D+00 EMaxC= 1.00D-01 BMatC= 3.13D-05 BMatP= 2.05D-03
 IDIUse=3 WtCom= 9.88D-01 WtEn= 1.19D-02
 Coeff-Com:  0.126D+00-0.264D+00-0.583D-01 0.120D+01
 Coeff-En:   0.000D+00 0.000D+00 0.000D+00 0.100D+01
 Coeff:      0.124D+00-0.260D+00-0.576D-01 0.119D+01
 Gap=     0.566 Goal=   None    Shift=    0.000
 Gap=     0.208 Goal=   None    Shift=    0.000
 RMSDP=1.27D-04 MaxDP=1.26D-03 DE=-3.38D-04 OVMax= 2.03D-03

 Cycle   5  Pass 0  IDiag  1:
 E= -75.9515129916978     Delta-E=       -0.000009686658 Rises=F Damp=F
 DIIS: error= 1.62D-04 at cycle   5 NSaved=   5.
 NSaved= 5 IEnMin= 5 EnMin= -75.9515129916978     IErMin= 5 ErrMin= 1.62D-04
 ErrMax= 1.62D-04  0.00D+00 EMaxC= 1.00D-01 BMatC= 5.24D-07 BMatP= 3.13D-05
 IDIUse=3 WtCom= 9.98D-01 WtEn= 1.62D-03
 Coeff-Com: -0.978D-02 0.210D-01-0.196D-01-0.229D+00 0.124D+01
 Coeff-En:   0.000D+00 0.000D+00 0.000D+00 0.000D+00 0.100D+01
 Coeff:     -0.977D-02 0.210D-01-0.196D-01-0.228D+00 0.124D+01
 Gap=     0.566 Goal=   None    Shift=    0.000
 Gap=     0.208 Goal=   None    Shift=    0.000
 RMSDP=2.76D-05 MaxDP=1.64D-04 DE=-9.69D-06 OVMax= 3.87D-04

 Cycle   6  Pass 0  IDiag  1:
 E= -75.9515132810179     Delta-E=       -0.000000289320 Rises=F Damp=F
 DIIS: error= 1.62D-05 at cycle   6 NSaved=   6.
 NSaved= 6 IEnMin= 6 EnMin= -75.9515132810179     IErMin= 6 ErrMin= 1.62D-05
 ErrMax= 1.62D-05  0.00D+00 EMaxC= 1.00D-01 BMatC= 7.34D-09 BMatP= 5.24D-07
 IDIUse=1 WtCom= 1.00D+00 WtEn= 0.00D+00
 Coeff-Com: -0.259D-03 0.533D-03 0.439D-02 0.969D-02-0.162D+00 0.115D+01
 Coeff:     -0.259D-03 0.533D-03 0.439D-02 0.969D-02-0.162D+00 0.115D+01
 Gap=     0.566 Goal=   None    Shift=    0.000
 Gap=     0.208 Goal=   None    Shift=    0.000
 RMSDP=2.74D-06 MaxDP=1.55D-05 DE=-2.89D-07 OVMax= 3.23D-05

 Initial convergence to 1.0D-05 achieved.  Increase integral accuracy.
 Cycle   7  Pass 1  IDiag  1:
 E= -75.9515139986537     Delta-E=       -0.000000717636 Rises=F Damp=F
 DIIS: error= 1.47D-06 at cycle   1 NSaved=   1.
 NSaved= 1 IEnMin= 1 EnMin= -75.9515139986537     IErMin= 1 ErrMin= 1.47D-06
 ErrMax= 1.47D-06  0.00D+00 EMaxC= 1.00D-01 BMatC= 1.16D-10 BMatP= 1.16D-10
 IDIUse=1 WtCom= 1.00D+00 WtEn= 0.00D+00
 Coeff-Com:  0.100D+01
 Coeff:      0.100D+01
 Gap=     0.566 Goal=   None    Shift=    0.000
 Gap=     0.208 Goal=   None    Shift=    0.000
 RMSDP=2.74D-06 MaxDP=1.55D-05 DE=-7.18D-07 OVMax= 3.08D-06

 Cycle   8  Pass 1  IDiag  1:
 E= -75.9515139986672     Delta-E=       -0.000000000013 Rises=F Damp=F
 DIIS: error= 1.46D-06 at cycle   2 NSaved=   2.
 NSaved= 2 IEnMin= 2 EnMin= -75.9515139986672     IErMin= 2 ErrMin= 1.46D-06
 ErrMax= 1.46D-06  0.00D+00 EMaxC= 1.00D-01 BMatC= 9.59D-11 BMatP= 1.16D-10
 IDIUse=1 WtCom= 1.00D+00 WtEn= 0.00D+00
 Coeff-Com:  0.472D+00 0.528D+00
 Coeff:      0.472D+00 0.528D+00
 Gap=     0.566 Goal=   None    Shift=    0.000
 Gap=     0.208 Goal=   None    Shift=    0.000
 RMSDP=1.36D-07 MaxDP=1.13D-06 DE=-1.35D-11 OVMax= 1.46D-06

 Cycle   9  Pass 1  IDiag  1:
 E= -75.9515139986830     Delta-E=       -0.000000000016 Rises=F Damp=F
 DIIS: error= 2.40D-07 at cycle   3 NSaved=   3.
 NSaved= 3 IEnMin= 3 EnMin= -75.9515139986830     IErMin= 3 ErrMin= 2.40D-07
 ErrMax= 2.40D-07  0.00D+00 EMaxC= 1.00D-01 BMatC= 2.05D-12 BMatP= 9.59D-11
 IDIUse=1 WtCom= 1.00D+00 WtEn= 0.00D+00
 Coeff-Com: -0.945D-01 0.368D-01 0.106D+01
 Coeff:     -0.945D-01 0.368D-01 0.106D+01
 Gap=     0.566 Goal=   None    Shift=    0.000
 Gap=     0.208 Goal=   None    Shift=    0.000
 RMSDP=3.59D-08 MaxDP=2.20D-07 DE=-1.58D-11 OVMax= 4.27D-07

 Cycle  10  Pass 1  IDiag  1:
 E= -75.9515139986836     Delta-E=       -0.000000000001 Rises=F Damp=F
 DIIS: error= 3.94D-08 at cycle   4 NSaved=   4.
 NSaved= 4 IEnMin= 4 EnMin= -75.9515139986836     IErMin= 4 ErrMin= 3.94D-08
 ErrMax= 3.94D-08  0.00D+00 EMaxC= 1.00D-01 BMatC= 4.90D-14 BMatP= 2.05D-12
 IDIUse=1 WtCom= 1.00D+00 WtEn= 0.00D+00
 Coeff-Com:  0.680D-04-0.136D-01-0.184D+00 0.120D+01
 Coeff:      0.680D-04-0.136D-01-0.184D+00 0.120D+01
 Gap=     0.566 Goal=   None    Shift=    0.000
 Gap=     0.208 Goal=   None    Shift=    0.000
 RMSDP=8.53D-09 MaxDP=3.90D-08 DE=-6.54D-13 OVMax= 9.75D-08

 SCF Done:  E(UB3LYP) =  -75.9515139987     A.U. after   10 cycles
            NFock= 10  Conv=0.85D-08     -V/T= 1.9990
 <Sx>= 0.0000 <Sy>= 0.0000 <Sz>= 0.5000 <S**2>= 0.7518 S= 0.5009
 <L.S>= 0.000000000000E+00
 KE= 7.602696003359D+01 PE=-1.941990044489D+02 EE= 3.295686783714D+01
 Annihilation of the first spin contaminant:
 S**2 before annihilation     0.7518,   after     0.7500
 Leave Link  502 at Wed Jun 12 13:44:21 2024, MaxMem=   104857600 cpu:               0.2 elap:               0.2
 (Enter /home/allouche/Softwares/Gaussian16/g16/l601.exe)
 Copying SCF densities to generalized density rwf, IOpCl= 1 IROHF=0.

 **********************************************************************

            Population analysis using the SCF Density.

 **********************************************************************

 Orbital symmetries:
 Alpha Orbitals:
       Occupied  (A1) (A1) (B2) (B1) (A1)
       Virtual   (A1) (B2) (B2) (A1) (B1) (A1) (B2) (A1) (A1) (B2)
                 (B1) (A1) (B2) (A1)
 Beta  Orbitals:
       Occupied  (A1) (A1) (B2) (A1)
       Virtual   (B1) (A1) (B2) (B2) (A1) (B1) (A1) (B2) (A1) (A1)
                 (B2) (B1) (A1) (B2) (A1)
 The electronic state is 2-B1.
 Alpha  occ. eigenvalues --  -19.69387  -1.56737  -1.02684  -0.88642  -0.86568
 Alpha virt. eigenvalues --   -0.29940  -0.21336   0.04137   0.06328   0.30120
 Alpha virt. eigenvalues --    0.37154   0.49502   0.71706   1.73698   1.78396
 Alpha virt. eigenvalues --    4.15095   4.33342   4.45348  49.14727
  Beta  occ. eigenvalues --  -19.66600  -1.49640  -1.00465  -0.83115
  Beta virt. eigenvalues --   -0.62315  -0.29024  -0.20728   0.04146   0.07180
  Beta virt. eigenvalues --    0.38159   0.38542   0.50779   0.75600   1.73204
  Beta virt. eigenvalues --    1.77858   4.27548   4.35841   4.47953  49.17564
     Alpha Molecular Orbital Coefficients:
                           1         2         3         4         5
                        (A1)--O   (A1)--O   (B2)--O   (B1)--O   (A1)--O
     Eigenvalues --   -19.69387  -1.56737  -1.02684  -0.88642  -0.86568
   1 1   O  1S          0.55091  -0.12135   0.00000   0.00000  -0.04682
   2        2S          0.47013  -0.19633   0.00000   0.00000  -0.07671
   3        2PX         0.00000   0.00000   0.00000   0.33481   0.00000
   4        2PY         0.00000   0.00000   0.26760   0.00000   0.00000
   5        2PZ        -0.00232  -0.06634   0.00000   0.00000   0.28909
   6        3S          0.01280   0.59502   0.00000   0.00000   0.24726
   7        3PX         0.00000   0.00000   0.00000   0.50195   0.00000
   8        3PY         0.00000   0.00000   0.41862   0.00000   0.00000
   9        3PZ         0.00043  -0.12640   0.00000   0.00000   0.42487
  10        4S         -0.00623   0.41813   0.00000   0.00000   0.23718
  11        4PX         0.00000   0.00000   0.00000   0.37818   0.00000
  12        4PY         0.00000   0.00000   0.21534   0.00000   0.00000
  13        4PZ         0.00086  -0.07682   0.00000   0.00000   0.32563
  14 2   H  1S         -0.00010   0.09740   0.15803   0.00000  -0.08476
  15        2S          0.00090   0.01238   0.15644   0.00000  -0.08075
  16        3S          0.00077  -0.01005   0.00164   0.00000  -0.01302
  17 3   H  1S         -0.00010   0.09740  -0.15803   0.00000  -0.08476
  18        2S          0.00090   0.01238  -0.15644   0.00000  -0.08075
  19        3S          0.00077  -0.01005  -0.00164   0.00000  -0.01302
                           6         7         8         9        10
                        (A1)--V   (B2)--V   (B2)--V   (A1)--V   (B1)--V
     Eigenvalues --    -0.29940  -0.21336   0.04137   0.06328   0.30120
   1 1   O  1S         -0.04908   0.00000   0.00000   0.02149   0.00000
   2        2S         -0.08272   0.00000   0.00000   0.03596   0.00000
   3        2PX         0.00000   0.00000   0.00000   0.00000  -0.25780
   4        2PY         0.00000  -0.20007   0.08347   0.00000   0.00000
   5        2PZ        -0.12100   0.00000   0.00000   0.11766   0.00000
   6        3S          0.28755   0.00000   0.00000  -0.09235   0.00000
   7        3PX         0.00000   0.00000   0.00000   0.00000  -0.73585
   8        3PY         0.00000  -0.31171   0.11808   0.00000   0.00000
   9        3PZ        -0.21824   0.00000   0.00000   0.20007   0.00000
  10        4S          0.82388   0.00000   0.00000  -0.83851   0.00000
  11        4PX         0.00000   0.00000   0.00000   0.00000   1.15946
  12        4PY         0.00000  -0.59163   0.73889   0.00000   0.00000
  13        4PZ        -0.25912   0.00000   0.00000   0.71089   0.00000
  14 2   H  1S         -0.07993   0.09386  -0.14055   0.13883   0.00000
  15        2S         -0.31844   0.44474  -1.24602   1.51050   0.00000
  16        3S         -0.58933   0.97572   1.31282  -0.81011   0.00000
  17 3   H  1S         -0.07993  -0.09386   0.14055   0.13883   0.00000
  18        2S         -0.31844  -0.44474   1.24602   1.51050   0.00000
  19        3S         -0.58933  -0.97572  -1.31282  -0.81011   0.00000
                          11        12        13        14        15
                        (A1)--V   (B2)--V   (A1)--V   (A1)--V   (B2)--V
     Eigenvalues --     0.37154   0.49502   0.71706   1.73698   1.78396
   1 1   O  1S          0.02385   0.00000   0.11650  -0.00655   0.00000
   2        2S          0.04044   0.00000   0.23289  -0.00299   0.00000
   3        2PX         0.00000   0.00000   0.00000   0.00000   0.00000
   4        2PY         0.00000  -0.24696   0.00000   0.00000   0.17575
   5        2PZ        -0.23488   0.00000   0.04427  -0.16255   0.00000
   6        3S         -0.14459   0.00000  -1.77928  -0.14128   0.00000
   7        3PX         0.00000   0.00000   0.00000   0.00000   0.00000
   8        3PY         0.00000  -0.78052   0.00000   0.00000  -0.10436
   9        3PZ        -0.73017   0.00000   0.10536   0.03064   0.00000
  10        4S         -0.52994   0.00000   3.02523  -0.47943   0.00000
  11        4PX         0.00000   0.00000   0.00000   0.00000   0.00000
  12        4PY         0.00000   1.84803   0.00000   0.00000  -0.26816
  13        4PZ         1.52774   0.00000  -0.82370   0.39310   0.00000
  14 2   H  1S          0.03989   0.01396   0.01222  -1.08214  -1.09550
  15        2S          0.53183  -0.34535  -0.77286   1.68873   1.72807
  16        3S          0.02900  -0.87797  -0.37582  -0.54990  -0.90287
  17 3   H  1S          0.03989  -0.01396   0.01222  -1.08214   1.09550
  18        2S          0.53183   0.34535  -0.77286   1.68873  -1.72807
  19        3S          0.02900   0.87797  -0.37582  -0.54990   0.90287
                          16        17        18        19
                        (B1)--V   (A1)--V   (B2)--V   (A1)--V
     Eigenvalues --     4.15095   4.33342   4.45348  49.14727
   1 1   O  1S          0.00000   0.00499   0.00000  -2.24596
   2        2S          0.00000   0.01197   0.00000   2.32997
   3        2PX        -1.25644   0.00000   0.00000   0.00000
   4        2PY         0.00000   0.00000  -1.26736   0.00000
   5        2PZ         0.00000  -1.25786   0.00000  -0.00456
   6        3S          0.00000  -0.08571   0.00000  -0.24895
   7        3PX         1.40655   0.00000   0.00000   0.00000
   8        3PY         0.00000   0.00000   1.51932   0.00000
   9        3PZ         0.00000   1.44853   0.00000   0.01469
  10        4S          0.00000   0.36768   0.00000   0.24977
  11        4PX        -0.56254   0.00000   0.00000   0.00000
  12        4PY         0.00000   0.00000  -0.86661   0.00000
  13        4PZ         0.00000  -0.73474   0.00000  -0.05285
  14 2   H  1S          0.00000   0.24583  -0.27770   0.00603
  15        2S          0.00000  -0.39050   0.34284  -0.04442
  16        3S          0.00000   0.02279   0.17804  -0.03135
  17 3   H  1S          0.00000   0.24583   0.27770   0.00603
  18        2S          0.00000  -0.39050  -0.34284  -0.04442
  19        3S          0.00000   0.02279  -0.17804  -0.03135
     Beta Molecular Orbital Coefficients:
                           1         2         3         4         5
                        (A1)--O   (A1)--O   (B2)--O   (A1)--O   (B1)--V
     Eigenvalues --   -19.66600  -1.49640  -1.00465  -0.83115  -0.62315
   1 1   O  1S          0.55167  -0.11727   0.00000  -0.04975   0.00000
   2        2S          0.46991  -0.18884   0.00000  -0.08111   0.00000
   3        2PX         0.00000   0.00000   0.00000   0.00000   0.30356
   4        2PY         0.00000   0.00000   0.25941   0.00000   0.00000
   5        2PZ        -0.00231  -0.07044   0.00000   0.28266   0.00000
   6        3S          0.01117   0.56579   0.00000   0.25683   0.00000
   7        3PX         0.00000   0.00000   0.00000   0.00000   0.44367
   8        3PY         0.00000   0.00000   0.40335   0.00000   0.00000
   9        3PZ         0.00049  -0.13236   0.00000   0.41010   0.00000
  10        4S         -0.00552   0.40186   0.00000   0.25793   0.00000
  11        4PX         0.00000   0.00000   0.00000   0.00000   0.47514
  12        4PY         0.00000   0.00000   0.21137   0.00000   0.00000
  13        4PZ         0.00078  -0.07038   0.00000   0.33915   0.00000
  14 2   H  1S         -0.00003   0.10882   0.16617  -0.08390   0.00000
  15        2S          0.00085   0.03635   0.16953  -0.07780   0.00000
  16        3S          0.00064  -0.01107   0.00644  -0.01575   0.00000
  17 3   H  1S         -0.00003   0.10882  -0.16617  -0.08390   0.00000
  18        2S          0.00085   0.03635  -0.16953  -0.07780   0.00000
  19        3S          0.00064  -0.01107  -0.00644  -0.01575   0.00000
                           6         7         8         9        10
                        (A1)--V   (B2)--V   (B2)--V   (A1)--V   (B1)--V
     Eigenvalues --    -0.29024  -0.20728   0.04146   0.07180   0.38159
   1 1   O  1S         -0.04962   0.00000   0.00000   0.02443   0.00000
   2        2S         -0.08284   0.00000   0.00000   0.04080   0.00000
   3        2PX         0.00000   0.00000   0.00000   0.00000  -0.27050
   4        2PY         0.00000  -0.20164   0.08695   0.00000   0.00000
   5        2PZ        -0.12042   0.00000   0.00000   0.11994   0.00000
   6        3S          0.27520   0.00000   0.00000  -0.11134   0.00000
   7        3PX         0.00000   0.00000   0.00000   0.00000  -0.79445
   8        3PY         0.00000  -0.31250   0.12344   0.00000   0.00000
   9        3PZ        -0.21767   0.00000   0.00000   0.20546   0.00000
  10        4S          0.86147   0.00000   0.00000  -0.84776   0.00000
  11        4PX         0.00000   0.00000   0.00000   0.00000   1.12876
  12        4PY         0.00000  -0.61131   0.74932   0.00000   0.00000
  13        4PZ        -0.26739   0.00000   0.00000   0.71762   0.00000
  14 2   H  1S         -0.07389   0.08768  -0.14030   0.13760   0.00000
  15        2S         -0.31164   0.43727  -1.24724   1.51349   0.00000
  16        3S         -0.60396   0.99420   1.30288  -0.80356   0.00000
  17 3   H  1S         -0.07389  -0.08768   0.14030   0.13760   0.00000
  18        2S         -0.31164  -0.43727   1.24724   1.51349   0.00000
  19        3S         -0.60396  -0.99420  -1.30288  -0.80356   0.00000
                          11        12        13        14        15
                        (A1)--V   (B2)--V   (A1)--V   (A1)--V   (B2)--V
     Eigenvalues --     0.38542   0.50779   0.75600   1.73204   1.77858
   1 1   O  1S          0.02412   0.00000   0.11812  -0.00690   0.00000
   2        2S          0.04055   0.00000   0.23553  -0.00343   0.00000
   3        2PX         0.00000   0.00000   0.00000   0.00000   0.00000
   4        2PY         0.00000  -0.24888   0.00000   0.00000   0.17615
   5        2PZ        -0.23686   0.00000   0.04350  -0.16239   0.00000
   6        3S         -0.13876   0.00000  -1.78876  -0.14094   0.00000
   7        3PX         0.00000   0.00000   0.00000   0.00000   0.00000
   8        3PY         0.00000  -0.79123   0.00000   0.00000  -0.09995
   9        3PZ        -0.73977   0.00000   0.10288   0.02648   0.00000
  10        4S         -0.54900   0.00000   3.01029  -0.47405   0.00000
  11        4PX         0.00000   0.00000   0.00000   0.00000   0.00000
  12        4PY         0.00000   1.83922   0.00000   0.00000  -0.27019
  13        4PZ         1.52677   0.00000  -0.81473   0.39304   0.00000
  14 2   H  1S          0.04077   0.01301   0.01380  -1.08195  -1.09515
  15        2S          0.53158  -0.33762  -0.77230   1.68795   1.72972
  16        3S          0.03271  -0.87133  -0.36465  -0.55086  -0.90366
  17 3   H  1S          0.04077  -0.01301   0.01380  -1.08195   1.09515
  18        2S          0.53158   0.33762  -0.77230   1.68795  -1.72972
  19        3S          0.03271   0.87133  -0.36465  -0.55086   0.90366
                          16        17        18        19
                        (B1)--V   (A1)--V   (B2)--V   (A1)--V
     Eigenvalues --     4.27548   4.35841   4.47953  49.17564
   1 1   O  1S          0.00000   0.00502   0.00000  -2.24580
   2        2S          0.00000   0.01202   0.00000   2.33013
   3        2PX        -1.26170   0.00000   0.00000   0.00000
   4        2PY         0.00000   0.00000  -1.26815   0.00000
   5        2PZ         0.00000  -1.25861   0.00000  -0.00456
   6        3S          0.00000  -0.08591   0.00000  -0.24913
   7        3PX         1.39421   0.00000   0.00000   0.00000
   8        3PY         0.00000   0.00000   1.51761   0.00000
   9        3PZ         0.00000   1.44698   0.00000   0.01471
  10        4S          0.00000   0.36614   0.00000   0.24976
  11        4PX        -0.55132   0.00000   0.00000   0.00000
  12        4PY         0.00000   0.00000  -0.86309   0.00000
  13        4PZ         0.00000  -0.73178   0.00000  -0.05284
  14 2   H  1S          0.00000   0.24454  -0.27652   0.00605
  15        2S          0.00000  -0.38834   0.34120  -0.04442
  16        3S          0.00000   0.02253   0.17731  -0.03135
  17 3   H  1S          0.00000   0.24454   0.27652   0.00605
  18        2S          0.00000  -0.38834  -0.34120  -0.04442
  19        3S          0.00000   0.02253  -0.17731  -0.03135
          Condensed to atoms (all electrons):
               1          2          3
     1  O    7.597831   0.227192   0.227192
     2  H    0.227192   0.263062  -0.016362
     3  H    0.227192  -0.016362   0.263062
          Atomic-Atomic Spin Densities.
               1          2          3
     1  O    1.093487  -0.014451  -0.014451
     2  H   -0.014451  -0.020015   0.002174
     3  H   -0.014451   0.002174  -0.020015
 Mulliken charges and spin densities:
               1          2
     1  O   -0.052215   1.064585
     2  H    0.526108  -0.032293
     3  H    0.526108  -0.032293
 Sum of Mulliken charges =   1.00000   1.00000
 Mulliken charges and spin densities with hydrogens summed into heavy atoms:
               1          2
     1  O    1.000000   1.000000
 Electronic spatial extent (au):  <R**2>=             14.5534
 Charge=              1.0000 electrons
 Dipole moment (field-independent basis, Debye):
    X=             -0.0000    Y=             -0.0000    Z=             -2.6614  Tot=              2.6614
 Quadrupole moment (field-independent basis, Debye-Ang):
   XX=             -4.7592   YY=             -2.2804   ZZ=             -4.5140
   XY=              0.0000   XZ=              0.0000   YZ=              0.0000
 Traceless Quadrupole moment (field-independent basis, Debye-Ang):
   XX=             -0.9080   YY=              1.5708   ZZ=             -0.6628
   XY=              0.0000   XZ=              0.0000   YZ=              0.0000
 Octapole moment (field-independent basis, Debye-Ang**2):
  XXX=              0.0000  YYY=             -0.0000  ZZZ=             -1.7504  XYY=             -0.0000
  XXY=             -0.0000  XXZ=             -0.3160  XZZ=             -0.0000  YZZ=              0.0000
  YYZ=             -1.6705  XYZ=             -0.0000
 Hexadecapole moment (field-independent basis, Debye-Ang**3):
 XXXX=             -2.7530 YYYY=             -3.0109 ZZZZ=             -4.4745 XXXY=             -0.0000
 XXXZ=             -0.0000 YYYX=              0.0000 YYYZ=              0.0000 ZZZX=             -0.0000
 ZZZY=              0.0000 XXYY=             -1.2537 XXZZ=             -1.2430 YYZZ=             -0.8774
 XXYZ=             -0.0000 YYXZ=              0.0000 ZZXY=              0.0000
 N-N= 9.263662579486D+00 E-N=-1.941990046097D+02  KE= 7.602696003359D+01
 Symmetry A1   KE= 6.909799156126D+01
 Symmetry A2   KE= 0.000000000000D+00
 Symmetry B1   KE= 2.748267077679D+00
 Symmetry B2   KE= 4.180701394656D+00
 Symmetry A1   SP=-2.870913142633D-15
 Symmetry A2   SP= 0.000000000000D+00
 Symmetry B1   SP= 1.000000000000D+00
 Symmetry B2   SP= 1.259531216304D-15
 Orbital energies and kinetic energies (alpha):
                                 1                 2
   1         (A1)--O         -19.693866         29.113640
   2         (A1)--O          -1.567373          2.924107
   3         (B2)--O          -1.026843          2.128571
   4         (B1)--O          -0.886421          2.748267
   5         (A1)--O          -0.865676          2.583665
   6         (A1)--V          -0.299402          1.139472
   7         (B2)--V          -0.213363          1.290230
   8         (B2)--V           0.041367          0.982572
   9         (A1)--V           0.063283          1.315617
  10         (B1)--V           0.301199          2.331269
  11         (A1)--V           0.371538          2.283113
  12         (B2)--V           0.495019          2.395821
  13         (A1)--V           0.717056          4.033656
  14         (A1)--V           1.736979          3.987217
  15         (B2)--V           1.783962          3.967181
  16         (B1)--V           4.150945         11.518229
  17         (A1)--V           4.333418         11.626121
  18         (B2)--V           4.453477         11.761758
  19         (A1)--V          49.147272        123.794331
 Orbital energies and kinetic energies (beta):
                                 1                 2
   1         (A1)--O         -19.665997         29.158385
   2         (A1)--O          -1.496403          2.771172
   3         (B2)--O          -1.004651          2.052130
   4         (A1)--O          -0.831148          2.547022
   5         (B1)--V          -0.623154          2.377074
   6         (A1)--V          -0.290245          1.139245
   7         (B2)--V          -0.207276          1.299629
   8         (B2)--V           0.041464          0.994715
   9         (A1)--V           0.071804          1.355845
  10         (B1)--V           0.381586          2.604277
  11         (A1)--V           0.385418          2.324341
  12         (B2)--V           0.507794          2.437191
  13         (A1)--V           0.755999          4.107469
  14         (A1)--V           1.732040          3.987743
  15         (B2)--V           1.778581          3.967738
  16         (B1)--V           4.275476         11.616414
  17         (A1)--V           4.358409         11.638725
  18         (B2)--V           4.479525         11.774730
  19         (A1)--V          49.175640        123.770994
 Total kinetic energy from orbitals= 7.602696003359D+01
                          Isotropic Fermi Contact Couplings
        Atom                 a.u.       MegaHertz       Gauss      10(-4) cm-1
     1  O(17)              0.06066     -36.76882     -13.12003     -12.26476
     2  H(1)              -0.01747     -78.07659     -27.85967     -26.04355
     3  H(1)              -0.01747     -78.07659     -27.85967     -26.04355
 --------------------------------------------------------
       Center         ----  Spin Dipole Couplings  ----
                      3XX-RR        3YY-RR        3ZZ-RR
 --------------------------------------------------------
     1   Atom        4.167749     -2.053178     -2.114571
     2   Atom       -0.057684      0.069865     -0.012181
     3   Atom       -0.057684      0.069865     -0.012181
 --------------------------------------------------------
                        XY            XZ            YZ
 --------------------------------------------------------
     1   Atom        0.000000      0.000000      0.000000
     2   Atom       -0.000000      0.000000     -0.159012
     3   Atom        0.000000      0.000000      0.159012
 --------------------------------------------------------


 ---------------------------------------------------------------------------------
              Anisotropic Spin Dipole Couplings in Principal Axis System
 ---------------------------------------------------------------------------------

       Atom             a.u.   MegaHertz   Gauss  10(-4) cm-1        Axes

              Baa    -2.1146   153.009    54.597    51.038  0.0000  0.0000  1.0000
     1 O(17)  Bbb    -2.0532   148.567    53.012    49.556 -0.0000  1.0000 -0.0000
              Bcc     4.1677  -301.575  -107.610  -100.595  1.0000 -0.0000 -0.0000
 
              Baa    -0.1354   -72.230   -25.774   -24.093 -0.0000  0.6125  0.7905
     2 H(1)   Bbb    -0.0577   -30.778   -10.982   -10.266  1.0000  0.0000  0.0000
              Bcc     0.1931   103.008    36.756    34.360 -0.0000  0.7905 -0.6125
 
              Baa    -0.1354   -72.230   -25.774   -24.093 -0.0000 -0.6125  0.7905
     3 H(1)   Bbb    -0.0577   -30.778   -10.982   -10.266  1.0000 -0.0000  0.0000
              Bcc     0.1931   103.008    36.756    34.360  0.0000  0.7905  0.6125
 

 ---------------------------------------------------------------------------------

 No NMR shielding tensors so no spin-rotation constants.
 Leave Link  601 at Wed Jun 12 13:44:21 2024, MaxMem=   104857600 cpu:               0.1 elap:               0.1
 (Enter /home/allouche/Softwares/Gaussian16/g16/l604.exe)
 Evaluate density and density gradient.
 Using the total density.
 Map the density over a grid of points, CutOff= 1.00D-06
 Writing cube to file h2o_p_Grad80.cube.
 IGUnit=  -31 Origin=   -2.630400   -2.630400   -2.514000 NVal=    4
     N1=   80 XYZInc=    0.066592    0.000000    0.000000
     N2=   80 XYZInc=    0.000000    0.066592    0.000000
     N3=   80 XYZInc=    0.000000    0.000000    0.066592
 Using the SCF density.
 There are    512000 points.  Will hold    317680 in memory.
 LenV=    78489438 MDV=   104857600.
 Integrated density= 8.9386774743504169D+00 error=-6.1322525649583071D-02
 Integrated density gradient=
-5.8965865805488092D-03-1.3519611785478929D+00 1.3595681100983077D+00
 Leave Link  604 at Wed Jun 12 13:44:23 2024, MaxMem=   104857600 cpu:               0.9 elap:               1.2
 (Enter /home/allouche/Softwares/Gaussian16/g16/l607.exe)
 ******************************Gaussian NBO Version 3.1******************************
             N A T U R A L   A T O M I C   O R B I T A L   A N D
          N A T U R A L   B O N D   O R B I T A L   A N A L Y S I S
 ******************************Gaussian NBO Version 3.1******************************
       /RESON  / : Allow strongly delocalized NBO set

 Analyzing the SCF density

 Job title: Input file generated by gabedit...                              

 Storage needed:      1243 in NPA ( 104857537 available)


 NATURAL POPULATIONS:  Natural atomic orbital occupancies 
                                                          
   NAO  Atom  No  lang   Type(AO)    Occupancy
 --------------------------------------------
     1    O    1  S      Cor( 1S)     1.99982
     2    O    1  S      Val( 2S)     1.79021
     3    O    1  S      Ryd( 3S)     0.00020
     4    O    1  S      Ryd( 4S)     0.00000
     5    O    1  px     Val( 2p)     1.00000
     6    O    1  px     Ryd( 3p)     0.00000
     7    O    1  px     Ryd( 4p)     0.00000
     8    O    1  py     Val( 2p)     1.48497
     9    O    1  py     Ryd( 3p)     0.00086
    10    O    1  py     Ryd( 4p)     0.00000
    11    O    1  pz     Val( 2p)     1.74144
    12    O    1  pz     Ryd( 3p)     0.00097
    13    O    1  pz     Ryd( 4p)     0.00013

    14    H    2  S      Val( 1S)     0.48942
    15    H    2  S      Ryd( 2S)     0.00116
    16    H    2  S      Ryd( 3S)     0.00012

    17    H    3  S      Val( 1S)     0.48942
    18    H    3  S      Ryd( 2S)     0.00116
    19    H    3  S      Ryd( 3S)     0.00012


 Summary of Natural Population Analysis:                  
                                                          
                                       Natural Population 
                Natural  -----------------------------------------------
    Atom  No    Charge         Core      Valence    Rydberg      Total
 -----------------------------------------------------------------------
      O    1   -0.01860      1.99982     6.01662    0.00217     8.01860
      H    2    0.50930      0.00000     0.48942    0.00128     0.49070
      H    3    0.50930      0.00000     0.48942    0.00128     0.49070
 =======================================================================
   * Total *    1.00000      1.99982     6.99545    0.00473     9.00000

                                 Natural Population      
 --------------------------------------------------------
   Core                       1.99982 ( 99.9909% of   2)
   Valence                    6.99545 ( 99.9350% of   7)
   Natural Minimal Basis      8.99527 ( 99.9474% of   9)
   Natural Rydberg Basis      0.00473 (  0.0526% of   9)
 --------------------------------------------------------

    Atom  No          Natural Electron Configuration
 ----------------------------------------------------------------------------
      O    1      [core]2S( 1.79)2p( 4.23)
      H    2            1S( 0.49)
      H    3            1S( 0.49)


 ***************************************************
 *******         Alpha spin orbitals         *******
 ***************************************************


 NATURAL POPULATIONS:  Natural atomic orbital occupancies 
                                                          
   NAO  Atom  No  lang   Type(AO)    Occupancy      Energy
 ----------------------------------------------------------
     1    O    1  S      Cor( 1S)     0.99991     -19.45812
     2    O    1  S      Val( 2S)     0.90231      -1.53777
     3    O    1  S      Ryd( 3S)     0.00008       0.82669
     4    O    1  S      Ryd( 4S)     0.00000      48.98590
     5    O    1  px     Val( 2p)     1.00000      -0.88642
     6    O    1  px     Ryd( 3p)     0.00000       0.31025
     7    O    1  px     Ryd( 4p)     0.00000       4.14189
     8    O    1  py     Val( 2p)     0.75389      -0.77462
     9    O    1  py     Ryd( 3p)     0.00052       0.42067
    10    O    1  py     Ryd( 4p)     0.00000       4.36791
    11    O    1  pz     Val( 2p)     0.87524      -0.79579
    12    O    1  pz     Ryd( 3p)     0.00020       0.40502
    13    O    1  pz     Ryd( 4p)     0.00007       4.27693

    14    H    2  S      Val( 1S)     0.23323      -0.29125
    15    H    2  S      Ryd( 2S)     0.00059       0.46787
    16    H    2  S      Ryd( 3S)     0.00006       1.20338

    17    H    3  S      Val( 1S)     0.23323      -0.29125
    18    H    3  S      Ryd( 2S)     0.00059       0.46787
    19    H    3  S      Ryd( 3S)     0.00006       1.20338


 Summary of Natural Population Analysis:                  
                                                          
                                       Natural Population 
                Natural  -----------------------------------------------
    Atom  No    Charge         Core      Valence    Rydberg      Total
 -----------------------------------------------------------------------
      O    1   -0.53223      0.99991     3.53144    0.00089     4.53223
      H    2    0.26611      0.00000     0.23323    0.00065     0.23389
      H    3    0.26611      0.00000     0.23323    0.00065     0.23389
 =======================================================================
   * Total *    0.00000      0.99991     3.99790    0.00219     5.00000

                                 Natural Population      
 --------------------------------------------------------
   Core                       0.99991 ( 99.9906% of   1)
   Valence                    3.99790 ( 99.9475% of   4)
   Natural Minimal Basis      4.99781 ( 99.9561% of   5)
   Natural Rydberg Basis      0.00219 (  0.0439% of   5)
 --------------------------------------------------------

    Atom  No          Natural Electron Configuration
 ----------------------------------------------------------------------------
      O    1      [core]2S( 0.90)2p( 2.63)
      H    2            1S( 0.23)
      H    3            1S( 0.23)




 NBO analysis skipped by request.
 Leave Link  607 at Wed Jun 12 13:44:23 2024, MaxMem=   104857600 cpu:               0.1 elap:               0.1
 (Enter /home/allouche/Softwares/Gaussian16/g16/l9999.exe)

 Test job not archived.
 1\1\GINC-ILMFIXE1061\SP\UB3LYP\6-311G\H2O1(1+,2)\TMAAMAATUAI\12-Jun-20
 24\0\\#P B3LYP/6-311G Cube=(80,Density,Full,Gradient) # Gfinput IOP(6/
 7=3) Pop=NPA Test Density=current # Units(Ang,Deg)\\Input file generat
 ed by gabedit...\\1,2\O,0,0.,-0.388,0.\H,0,0.751,0.194,0.\H,0,-0.751,0
 .194,0.\\Version=ES64L-G16RevC.01\State=2-B1\HF=-75.951514\S2=0.751822
 \S2-1=0.\S2A=0.750002\RMSD=8.527e-09\Dipole=0.,1.0470737,0.\Quadrupole
 =1.167862,-0.4927721,-0.6750899,0.,0.,0.\PG=C02V [C2(O1),SGV(H2)]\\@


 THERE IS NO SCIENCE WITHOUT FANCY, NOR ART WITHOUT FACTS.
     -- VLADIMIR NABAKOV
 Job cpu time:       0 days  0 hours  0 minutes  1.5 seconds.
 Elapsed time:       0 days  0 hours  0 minutes  1.9 seconds.
 File lengths (MBytes):  RWF=     17 Int=      0 D2E=      0 Chk=      2 Scr=      2
 Normal termination of Gaussian 16 at Wed Jun 12 13:44:23 2024.
