 Entering Gaussian System, Link 0=g16
 Input=h2o_m.com
 Output=h2o_m.log
 Initial command:
 /home/allouche/Softwares/Gaussian16/g16/l1.exe "/home/tmaamaatuai/CdftT/src/applications/testNumeric/Gau-396354.inp" -scrdir="/home/tmaamaatuai/CdftT/src/applications/testNumeric/"
 Entering Link 1 = /home/allouche/Softwares/Gaussian16/g16/l1.exe PID=    396356.
  
 Copyright (c) 1988-2019, Gaussian, Inc.  All Rights Reserved.
  
 This is part of the Gaussian(R) 16 program.  It is based on
 the Gaussian(R) 09 system (copyright 2009, Gaussian, Inc.),
 the Gaussian(R) 03 system (copyright 2003, Gaussian, Inc.),
 the Gaussian(R) 98 system (copyright 1998, Gaussian, Inc.),
 the Gaussian(R) 94 system (copyright 1995, Gaussian, Inc.),
 the Gaussian 92(TM) system (copyright 1992, Gaussian, Inc.),
 the Gaussian 90(TM) system (copyright 1990, Gaussian, Inc.),
 the Gaussian 88(TM) system (copyright 1988, Gaussian, Inc.),
 the Gaussian 86(TM) system (copyright 1986, Carnegie Mellon
 University), and the Gaussian 82(TM) system (copyright 1983,
 Carnegie Mellon University). Gaussian is a federally registered
 trademark of Gaussian, Inc.
  
 This software contains proprietary and confidential information,
 including trade secrets, belonging to Gaussian, Inc.
  
 This software is provided under written license and may be
 used, copied, transmitted, or stored only in accord with that
 written license.
  
 The following legend is applicable only to US Government
 contracts under FAR:
  
                    RESTRICTED RIGHTS LEGEND
  
 Use, reproduction and disclosure by the US Government is
 subject to restrictions as set forth in subparagraphs (a)
 and (c) of the Commercial Computer Software - Restricted
 Rights clause in FAR 52.227-19.
  
 Gaussian, Inc.
 340 Quinnipiac St., Bldg. 40, Wallingford CT 06492
  
  
 ---------------------------------------------------------------
 Warning -- This program may not be used in any manner that
 competes with the business of Gaussian, Inc. or will provide
 assistance to any competitor of Gaussian, Inc.  The licensee
 of this program is prohibited from giving any competitor of
 Gaussian, Inc. access to this program.  By using this program,
 the user acknowledges that Gaussian, Inc. is engaged in the
 business of creating and licensing software in the field of
 computational chemistry and represents and warrants to the
 licensee that it is not a competitor of Gaussian, Inc. and that
 it will not use this program in any manner prohibited above.
 ---------------------------------------------------------------
  

 Cite this work as:
 Gaussian 16, Revision C.01,
 M. J. Frisch, G. W. Trucks, H. B. Schlegel, G. E. Scuseria, 
 M. A. Robb, J. R. Cheeseman, G. Scalmani, V. Barone, 
 G. A. Petersson, H. Nakatsuji, X. Li, M. Caricato, A. V. Marenich, 
 J. Bloino, B. G. Janesko, R. Gomperts, B. Mennucci, H. P. Hratchian, 
 J. V. Ortiz, A. F. Izmaylov, J. L. Sonnenberg, D. Williams-Young, 
 F. Ding, F. Lipparini, F. Egidi, J. Goings, B. Peng, A. Petrone, 
 T. Henderson, D. Ranasinghe, V. G. Zakrzewski, J. Gao, N. Rega, 
 G. Zheng, W. Liang, M. Hada, M. Ehara, K. Toyota, R. Fukuda, 
 J. Hasegawa, M. Ishida, T. Nakajima, Y. Honda, O. Kitao, H. Nakai, 
 T. Vreven, K. Throssell, J. A. Montgomery, Jr., J. E. Peralta, 
 F. Ogliaro, M. J. Bearpark, J. J. Heyd, E. N. Brothers, K. N. Kudin, 
 V. N. Staroverov, T. A. Keith, R. Kobayashi, J. Normand, 
 K. Raghavachari, A. P. Rendell, J. C. Burant, S. S. Iyengar, 
 J. Tomasi, M. Cossi, J. M. Millam, M. Klene, C. Adamo, R. Cammi, 
 J. W. Ochterski, R. L. Martin, K. Morokuma, O. Farkas, 
 J. B. Foresman, and D. J. Fox, Gaussian, Inc., Wallingford CT, 2019.
 
 ******************************************
 Gaussian 16:  ES64L-G16RevC.01  3-Jul-2019
                12-Jun-2024 
 ******************************************
 ----------------------------------------------------------------------
 #P B3LYP/6-311G Cube=(80,Density,Full,Gradient) # Gfinput IOP(6/7=3) P
 op=NPA Test Density=current # Units(Ang,Deg)
 ----------------------------------------------------------------------
 1/30=1,38=1,172=1/1;
 2/12=2,17=6,18=5,40=1/2;
 3/5=4,6=6,11=2,24=10,25=1,30=1,74=-5/1,2,3;
 4//1;
 5/5=2,38=5/2;
 6/7=3,8=2,9=2,10=2,22=-1,23=2,24=2,28=1,40=-1,49=80/1,4,7;
 99/5=1,9=1/99;
 Leave Link    1 at Wed Jun 12 13:44:00 2024, MaxMem=           0 cpu:               0.0 elap:               0.0
 (Enter /home/allouche/Softwares/Gaussian16/g16/l101.exe)
 ----------------------------------
 Input file generated by gabedit...
 ----------------------------------
 Symbolic Z-matrix:
 Charge = -1 Multiplicity = 2
 O                    0     0.       -0.388     0. 
 H                    0     0.751     0.194     0. 
 H                    0    -0.751     0.194     0. 
 
 ITRead=  0  0  0
 MicOpt= -1 -1 -1
 NAtoms=      3 NQM=        3 NQMF=       0 NMMI=      0 NMMIF=      0
                NMic=       0 NMicF=      0.
                    Isotopes and Nuclear Properties:
 (Nuclear quadrupole moments (NQMom) in fm**2, nuclear magnetic moments (NMagM)
  in nuclear magnetons)

  Atom         1           2           3
 IAtWgt=          16           1           1
 AtmWgt=  15.9949146   1.0078250   1.0078250
 NucSpn=           0           1           1
 AtZEff=  -0.0000000  -0.0000000  -0.0000000
 NQMom=    0.0000000   0.0000000   0.0000000
 NMagM=    0.0000000   2.7928460   2.7928460
 AtZNuc=   8.0000000   1.0000000   1.0000000
 Leave Link  101 at Wed Jun 12 13:44:00 2024, MaxMem=   104857600 cpu:               0.0 elap:               0.0
 (Enter /home/allouche/Softwares/Gaussian16/g16/l202.exe)
                          Input orientation:                          
 ---------------------------------------------------------------------
 Center     Atomic      Atomic             Coordinates (Angstroms)
 Number     Number       Type             X           Y           Z
 ---------------------------------------------------------------------
      1          8           0        0.000000   -0.388000    0.000000
      2          1           0        0.751000    0.194000    0.000000
      3          1           0       -0.751000    0.194000    0.000000
 ---------------------------------------------------------------------
                    Distance matrix (angstroms):
                    1          2          3
     1  O    0.000000
     2  H    0.950118   0.000000
     3  H    0.950118   1.502000   0.000000
 Stoichiometry    H2O(1-,2)
 Framework group  C2V[C2(O),SGV(H2)]
 Deg. of freedom     2
 Full point group                 C2V     NOp   4
 Largest Abelian subgroup         C2V     NOp   4
 Largest concise Abelian subgroup C2      NOp   2
                         Standard orientation:                         
 ---------------------------------------------------------------------
 Center     Atomic      Atomic             Coordinates (Angstroms)
 Number     Number       Type             X           Y           Z
 ---------------------------------------------------------------------
      1          8           0       -0.000000    0.000000    0.116400
      2          1           0        0.000000    0.751000   -0.465600
      3          1           0       -0.000000   -0.751000   -0.465600
 ---------------------------------------------------------------------
 Rotational constants (GHZ):         833.4921136         444.5516094         289.9198626
 Leave Link  202 at Wed Jun 12 13:44:00 2024, MaxMem=   104857600 cpu:               0.0 elap:               0.0
 (Enter /home/allouche/Softwares/Gaussian16/g16/l301.exe)
 Standard basis: 6-311G (5D, 7F)
 Ernie: Thresh=  0.10000D-02 Tol=  0.10000D-05 Strict=F.
 AO basis set in the form of general basis input (Overlap normalization):
      1 0
 S   6 1.00       0.000000000000
      0.8588500000D+04  0.1895150083D-02
      0.1297230000D+04  0.1438590063D-01
      0.2992960000D+03  0.7073200310D-01
      0.8737710000D+02  0.2400010105D+00
      0.2567890000D+02  0.5947970261D+00
      0.3740040000D+01  0.2808020123D+00
 SP   3 1.00       0.000000000000
      0.4211750000D+02  0.1138890124D+00  0.3651139738D-01
      0.9628370000D+01  0.9208111006D+00  0.2371529830D+00
      0.2853320000D+01 -0.3274470358D-02  0.8197019412D+00
 SP   1 1.00       0.000000000000
      0.9056610000D+00  0.1000000000D+01  0.1000000000D+01
 SP   1 1.00       0.000000000000
      0.2556110000D+00  0.1000000000D+01  0.1000000000D+01
 ****
      2 0
 S   3 1.00       0.000000000000
      0.3386500000D+02  0.2549381454D-01
      0.5094790000D+01  0.1903731086D+00
      0.1158790000D+01  0.8521614860D+00
 S   1 1.00       0.000000000000
      0.3258400000D+00  0.1000000000D+01
 S   1 1.00       0.000000000000
      0.1027410000D+00  0.1000000000D+01
 ****
      3 0
 S   3 1.00       0.000000000000
      0.3386500000D+02  0.2549381454D-01
      0.5094790000D+01  0.1903731086D+00
      0.1158790000D+01  0.8521614860D+00
 S   1 1.00       0.000000000000
      0.3258400000D+00  0.1000000000D+01
 S   1 1.00       0.000000000000
      0.1027410000D+00  0.1000000000D+01
 ****

 There are    10 symmetry adapted cartesian basis functions of A1  symmetry.
 There are     0 symmetry adapted cartesian basis functions of A2  symmetry.
 There are     3 symmetry adapted cartesian basis functions of B1  symmetry.
 There are     6 symmetry adapted cartesian basis functions of B2  symmetry.
 There are    10 symmetry adapted basis functions of A1  symmetry.
 There are     0 symmetry adapted basis functions of A2  symmetry.
 There are     3 symmetry adapted basis functions of B1  symmetry.
 There are     6 symmetry adapted basis functions of B2  symmetry.
    19 basis functions,    36 primitive gaussians,    19 cartesian basis functions
     6 alpha electrons        5 beta electrons
       nuclear repulsion energy         9.2636625795 Hartrees.
 IExCor=  402 DFT=T Ex+Corr=B3LYP ExCW=0 ScaHFX=  0.200000
 ScaDFX=  0.800000  0.720000  1.000000  0.810000 ScalE2=  1.000000  1.000000
 IRadAn=      5 IRanWt=     -1 IRanGd=            0 ICorTp=0 IEmpDi=  4
 NAtoms=    3 NActive=    3 NUniq=    2 SFac= 2.25D+00 NAtFMM=   60 NAOKFM=F Big=F
 Integral buffers will be    131072 words long.
 Raffenetti 2 integral format.
 Two-electron integral symmetry is turned on.
 Leave Link  301 at Wed Jun 12 13:44:00 2024, MaxMem=   104857600 cpu:               0.0 elap:               0.0
 (Enter /home/allouche/Softwares/Gaussian16/g16/l302.exe)
 NPDir=0 NMtPBC=     1 NCelOv=     1 NCel=       1 NClECP=     1 NCelD=      1
         NCelK=      1 NCelE2=     1 NClLst=     1 CellRange=     0.0.
 One-electron integrals computed using PRISM.
 One-electron integral symmetry used in STVInt
 NBasis=    19 RedAO= T EigKep=  4.22D-02  NBF=    10     0     3     6
 NBsUse=    19 1.00D-06 EigRej= -1.00D+00 NBFU=    10     0     3     6
 Precomputing XC quadrature grid using
 IXCGrd= 4 IRadAn=           5 IRanWt=          -1 IRanGd=           0 AccXCQ= 0.00D+00.
 Generated NRdTot=       0 NPtTot=           0 NUsed=           0 NTot=          32
 NSgBfM=    19    19    19    19    19 MxSgAt=     3 MxSgA2=     3.
 Leave Link  302 at Wed Jun 12 13:44:00 2024, MaxMem=   104857600 cpu:               0.0 elap:               0.0
 (Enter /home/allouche/Softwares/Gaussian16/g16/l303.exe)
 DipDrv:  MaxL=1.
 Leave Link  303 at Wed Jun 12 13:44:00 2024, MaxMem=   104857600 cpu:               0.0 elap:               0.0
 (Enter /home/allouche/Softwares/Gaussian16/g16/l401.exe)
 ExpMin= 1.03D-01 ExpMax= 8.59D+03 ExpMxC= 1.30D+03 IAcc=3 IRadAn=         5 AccDes= 0.00D+00
 Harris functional with IExCor=  402 and IRadAn=       5 diagonalized for initial guess.
 HarFok:  IExCor=  402 AccDes= 0.00D+00 IRadAn=         5 IDoV= 1 UseB2=F ITyADJ=14
 ICtDFT=  3500011 ScaDFX=  1.000000  1.000000  1.000000  1.000000
 FoFCou: FMM=F IPFlag=           0 FMFlag=      100000 FMFlg1=           0
         NFxFlg=           0 DoJE=T BraDBF=F KetDBF=T FulRan=T
         wScrn=  0.000000 ICntrl=       500 IOpCl=  0 I1Cent=   200000004 NGrid=           0
         NMat0=    1 NMatS0=      1 NMatT0=    0 NMatD0=    1 NMtDS0=    0 NMtDT0=    0
 Petite list used in FoFCou.
 Harris En= -76.4953188507520    
 JPrj=0 DoOrth=F DoCkMO=F.
 Initial guess orbital symmetries:
 Alpha Orbitals:
       Occupied  (A1) (A1) (B2) (A1) (B1) (A1)
       Virtual   (B2) (B2) (A1) (B1) (A1) (B2) (A1) (A1) (B2) (B1)
                 (A1) (B2) (A1)
 Beta  Orbitals:
       Occupied  (A1) (A1) (B2) (A1) (B1)
       Virtual   (A1) (B2) (B2) (A1) (B1) (A1) (B2) (A1) (A1) (B2)
                 (B1) (A1) (B2) (A1)
 The electronic state of the initial guess is 2-A1.
 Initial guess <Sx>= 0.0000 <Sy>= 0.0000 <Sz>= 0.5000 <S**2>= 0.7500 S= 0.5000
 Leave Link  401 at Wed Jun 12 13:44:00 2024, MaxMem=   104857600 cpu:               0.1 elap:               0.1
 (Enter /home/allouche/Softwares/Gaussian16/g16/l502.exe)
 Keep R1 and R2 ints in memory in symmetry-blocked form, NReq=882566.
 FoFCou: FMM=F IPFlag=           0 FMFlag=           0 FMFlg1=           0
         NFxFlg=           0 DoJE=F BraDBF=F KetDBF=F FulRan=T
         wScrn=  0.000000 ICntrl=       600 IOpCl=  0 I1Cent=           0 NGrid=           0
         NMat0=    1 NMatS0=    190 NMatT0=    0 NMatD0=    1 NMtDS0=    0 NMtDT0=    0
 Petite list used in FoFCou.
 UHF open shell SCF:
 Using DIIS extrapolation, IDIIS=  1040.
 NGot=   104857600 LenX=   104843282 LenY=   104842400
 Requested convergence on RMS density matrix=1.00D-08 within 128 cycles.
 Requested convergence on MAX density matrix=1.00D-06.
 Requested convergence on             energy=1.00D-06.
 No special actions if energy rises.
 Integral accuracy reduced to 1.0D-05 until final iterations.

 Cycle   1  Pass 0  IDiag  1:
 E= -76.1678122121260    
 DIIS: error= 1.17D-01 at cycle   1 NSaved=   1.
 NSaved= 1 IEnMin= 1 EnMin= -76.1678122121260     IErMin= 1 ErrMin= 1.17D-01
 ErrMax= 1.17D-01  0.00D+00 EMaxC= 1.00D-01 BMatC= 7.95D-01 BMatP= 7.95D-01
 IDIUse=3 WtCom= 0.00D+00 WtEn= 1.00D+00
 Coeff-Com:  0.100D+01
 Coeff-En:   0.100D+01
 Coeff:      0.100D+01
 Gap=     0.130 Goal=   None    Shift=    0.000
 Gap=     0.085 Goal=   None    Shift=    0.000
 GapD=    0.085 DampG=0.500 DampE=0.250 DampFc=0.2500 IDamp=-1.
 Damping current iteration by 2.50D-01
 RMSDP=4.77D-02 MaxDP=3.12D-01              OVMax= 2.90D-01

 Cycle   2  Pass 0  IDiag  1:
 E= -76.2200461838443     Delta-E=       -0.052233971718 Rises=F Damp=T
 DIIS: error= 4.45D-02 at cycle   2 NSaved=   2.
 NSaved= 2 IEnMin= 2 EnMin= -76.2200461838443     IErMin= 2 ErrMin= 4.45D-02
 ErrMax= 4.45D-02  0.00D+00 EMaxC= 1.00D-01 BMatC= 1.12D-01 BMatP= 7.95D-01
 IDIUse=3 WtCom= 5.55D-01 WtEn= 4.45D-01
 Coeff-Com: -0.583D+00 0.158D+01
 Coeff-En:   0.000D+00 0.100D+01
 Coeff:     -0.323D+00 0.132D+01
 Gap=     0.119 Goal=   None    Shift=    0.000
 Gap=     0.237 Goal=   None    Shift=    0.000
 RMSDP=1.70D-02 MaxDP=1.11D-01 DE=-5.22D-02 OVMax= 1.46D-01

 Cycle   3  Pass 0  IDiag  1:
 E= -76.2980503554376     Delta-E=       -0.078004171593 Rises=F Damp=F
 DIIS: error= 2.85D-02 at cycle   3 NSaved=   3.
 NSaved= 3 IEnMin= 3 EnMin= -76.2980503554376     IErMin= 3 ErrMin= 2.85D-02
 ErrMax= 2.85D-02  0.00D+00 EMaxC= 1.00D-01 BMatC= 4.64D-02 BMatP= 1.12D-01
 IDIUse=3 WtCom= 7.15D-01 WtEn= 2.85D-01
 Coeff-Com:  0.664D+00-0.957D+00 0.129D+01
 Coeff-En:   0.000D+00 0.000D+00 0.100D+01
 Coeff:      0.474D+00-0.684D+00 0.121D+01
 Gap=     0.111 Goal=   None    Shift=    0.000
 Gap=     0.292 Goal=   None    Shift=    0.000
 RMSDP=4.75D-03 MaxDP=5.40D-02 DE=-7.80D-02 OVMax= 3.45D-02

 Cycle   4  Pass 0  IDiag  1:
 E= -76.3044146956765     Delta-E=       -0.006364340239 Rises=F Damp=F
 DIIS: error= 1.09D-02 at cycle   4 NSaved=   4.
 NSaved= 4 IEnMin= 4 EnMin= -76.3044146956765     IErMin= 4 ErrMin= 1.09D-02
 ErrMax= 1.09D-02  0.00D+00 EMaxC= 1.00D-01 BMatC= 7.05D-03 BMatP= 4.64D-02
 IDIUse=3 WtCom= 8.91D-01 WtEn= 1.09D-01
 Coeff-Com: -0.871D-01 0.123D+00 0.146D+00 0.818D+00
 Coeff-En:   0.000D+00 0.000D+00 0.124D+00 0.876D+00
 Coeff:     -0.776D-01 0.110D+00 0.143D+00 0.825D+00
 Gap=     0.110 Goal=   None    Shift=    0.000
 Gap=     0.281 Goal=   None    Shift=    0.000
 RMSDP=1.39D-03 MaxDP=1.15D-02 DE=-6.36D-03 OVMax= 9.66D-03

 Cycle   5  Pass 0  IDiag  1:
 E= -76.3055032449903     Delta-E=       -0.001088549314 Rises=F Damp=F
 DIIS: error= 6.33D-04 at cycle   5 NSaved=   5.
 NSaved= 5 IEnMin= 5 EnMin= -76.3055032449903     IErMin= 5 ErrMin= 6.33D-04
 ErrMax= 6.33D-04  0.00D+00 EMaxC= 1.00D-01 BMatC= 2.25D-05 BMatP= 7.05D-03
 IDIUse=3 WtCom= 9.94D-01 WtEn= 6.33D-03
 Coeff-Com: -0.968D-02 0.110D-01 0.167D-02 0.113D+00 0.884D+00
 Coeff-En:   0.000D+00 0.000D+00 0.000D+00 0.000D+00 0.100D+01
 Coeff:     -0.961D-02 0.110D-01 0.166D-02 0.112D+00 0.885D+00
 Gap=     0.110 Goal=   None    Shift=    0.000
 Gap=     0.281 Goal=   None    Shift=    0.000
 RMSDP=1.11D-04 MaxDP=1.37D-03 DE=-1.09D-03 OVMax= 6.38D-04

 Cycle   6  Pass 0  IDiag  1:
 E= -76.3055065654790     Delta-E=       -0.000003320489 Rises=F Damp=F
 DIIS: error= 4.45D-05 at cycle   6 NSaved=   6.
 NSaved= 6 IEnMin= 6 EnMin= -76.3055065654790     IErMin= 6 ErrMin= 4.45D-05
 ErrMax= 4.45D-05  0.00D+00 EMaxC= 1.00D-01 BMatC= 4.56D-08 BMatP= 2.25D-05
 IDIUse=1 WtCom= 1.00D+00 WtEn= 0.00D+00
 Coeff-Com:  0.169D-02-0.190D-02-0.567D-02-0.401D-01-0.256D+00 0.130D+01
 Coeff:      0.169D-02-0.190D-02-0.567D-02-0.401D-01-0.256D+00 0.130D+01
 Gap=     0.110 Goal=   None    Shift=    0.000
 Gap=     0.281 Goal=   None    Shift=    0.000
 RMSDP=3.10D-05 MaxDP=2.58D-04 DE=-3.32D-06 OVMax= 1.29D-04

 Cycle   7  Pass 0  IDiag  1:
 E= -76.3055065972497     Delta-E=       -0.000000031771 Rises=F Damp=F
 DIIS: error= 9.91D-06 at cycle   7 NSaved=   7.
 NSaved= 7 IEnMin= 7 EnMin= -76.3055065972497     IErMin= 7 ErrMin= 9.91D-06
 ErrMax= 9.91D-06  0.00D+00 EMaxC= 1.00D-01 BMatC= 1.76D-09 BMatP= 4.56D-08
 IDIUse=1 WtCom= 1.00D+00 WtEn= 0.00D+00
 Coeff-Com: -0.236D-03 0.270D-03 0.110D-02 0.865D-02 0.666D-01-0.376D+00
 Coeff-Com:  0.130D+01
 Coeff:     -0.236D-03 0.270D-03 0.110D-02 0.865D-02 0.666D-01-0.376D+00
 Coeff:      0.130D+01
 Gap=     0.110 Goal=   None    Shift=    0.000
 Gap=     0.281 Goal=   None    Shift=    0.000
 RMSDP=2.59D-06 MaxDP=1.69D-05 DE=-3.18D-08 OVMax= 2.50D-05

 Initial convergence to 1.0D-05 achieved.  Increase integral accuracy.
 Cycle   8  Pass 1  IDiag  1:
 E= -76.3055097467006     Delta-E=       -0.000003149451 Rises=F Damp=F
 DIIS: error= 1.30D-06 at cycle   1 NSaved=   1.
 NSaved= 1 IEnMin= 1 EnMin= -76.3055097467006     IErMin= 1 ErrMin= 1.30D-06
 ErrMax= 1.30D-06  0.00D+00 EMaxC= 1.00D-01 BMatC= 1.01D-10 BMatP= 1.01D-10
 IDIUse=1 WtCom= 1.00D+00 WtEn= 0.00D+00
 Coeff-Com:  0.100D+01
 Coeff:      0.100D+01
 Gap=     0.110 Goal=   None    Shift=    0.000
 Gap=     0.281 Goal=   None    Shift=    0.000
 RMSDP=2.59D-06 MaxDP=1.69D-05 DE=-3.15D-06 OVMax= 6.67D-06

 Cycle   9  Pass 1  IDiag  1:
 E= -76.3055097467212     Delta-E=       -0.000000000021 Rises=F Damp=F
 DIIS: error= 1.77D-06 at cycle   2 NSaved=   2.
 NSaved= 2 IEnMin= 2 EnMin= -76.3055097467212     IErMin= 1 ErrMin= 1.30D-06
 ErrMax= 1.77D-06  0.00D+00 EMaxC= 1.00D-01 BMatC= 1.49D-10 BMatP= 1.01D-10
 IDIUse=1 WtCom= 1.00D+00 WtEn= 0.00D+00
 Coeff-Com:  0.560D+00 0.440D+00
 Coeff:      0.560D+00 0.440D+00
 Gap=     0.110 Goal=   None    Shift=    0.000
 Gap=     0.281 Goal=   None    Shift=    0.000
 RMSDP=2.36D-07 MaxDP=3.09D-06 DE=-2.06D-11 OVMax= 1.90D-06

 Cycle  10  Pass 1  IDiag  1:
 E= -76.3055097467459     Delta-E=       -0.000000000025 Rises=F Damp=F
 DIIS: error= 3.11D-07 at cycle   3 NSaved=   3.
 NSaved= 3 IEnMin= 3 EnMin= -76.3055097467459     IErMin= 3 ErrMin= 3.11D-07
 ErrMax= 3.11D-07  0.00D+00 EMaxC= 1.00D-01 BMatC= 2.91D-12 BMatP= 1.01D-10
 IDIUse=1 WtCom= 1.00D+00 WtEn= 0.00D+00
 Coeff-Com: -0.105D+00 0.442D-01 0.106D+01
 Coeff:     -0.105D+00 0.442D-01 0.106D+01
 Gap=     0.110 Goal=   None    Shift=    0.000
 Gap=     0.281 Goal=   None    Shift=    0.000
 RMSDP=1.67D-07 MaxDP=1.70D-06 DE=-2.46D-11 OVMax= 5.83D-07

 Cycle  11  Pass 1  IDiag  1:
 E= -76.3055097467471     Delta-E=       -0.000000000001 Rises=F Damp=F
 DIIS: error= 8.25D-08 at cycle   4 NSaved=   4.
 NSaved= 4 IEnMin= 4 EnMin= -76.3055097467471     IErMin= 4 ErrMin= 8.25D-08
 ErrMax= 8.25D-08  0.00D+00 EMaxC= 1.00D-01 BMatC= 1.61D-13 BMatP= 2.91D-12
 IDIUse=1 WtCom= 1.00D+00 WtEn= 0.00D+00
 Coeff-Com: -0.251D-02-0.146D-02-0.244D+00 0.125D+01
 Coeff:     -0.251D-02-0.146D-02-0.244D+00 0.125D+01
 Gap=     0.110 Goal=   None    Shift=    0.000
 Gap=     0.281 Goal=   None    Shift=    0.000
 RMSDP=2.48D-08 MaxDP=2.19D-07 DE=-1.21D-12 OVMax= 2.00D-07

 Cycle  12  Pass 1  IDiag  1:
 E= -76.3055097467471     Delta-E=       -0.000000000000 Rises=F Damp=F
 DIIS: error= 1.51D-08 at cycle   5 NSaved=   5.
 NSaved= 5 IEnMin= 5 EnMin= -76.3055097467471     IErMin= 5 ErrMin= 1.51D-08
 ErrMax= 1.51D-08  0.00D+00 EMaxC= 1.00D-01 BMatC= 5.40D-15 BMatP= 1.61D-13
 IDIUse=1 WtCom= 1.00D+00 WtEn= 0.00D+00
 Coeff-Com:  0.251D-02-0.668D-02-0.169D-02-0.144D+00 0.115D+01
 Coeff:      0.251D-02-0.668D-02-0.169D-02-0.144D+00 0.115D+01
 Gap=     0.110 Goal=   None    Shift=    0.000
 Gap=     0.281 Goal=   None    Shift=    0.000
 RMSDP=4.29D-09 MaxDP=2.71D-08 DE=-2.84D-14 OVMax= 3.48D-08

 SCF Done:  E(UB3LYP) =  -76.3055097467     A.U. after   12 cycles
            NFock= 12  Conv=0.43D-08     -V/T= 1.9944
 <Sx>= 0.0000 <Sy>= 0.0000 <Sz>= 0.5000 <S**2>= 0.7506 S= 0.5003
 <L.S>= 0.000000000000E+00
 KE= 7.673265264963D+01 PE=-2.028415539059D+02 EE= 4.053972893006D+01
 Annihilation of the first spin contaminant:
 S**2 before annihilation     0.7506,   after     0.7500
 Leave Link  502 at Wed Jun 12 13:44:01 2024, MaxMem=   104857600 cpu:               0.2 elap:               0.2
 (Enter /home/allouche/Softwares/Gaussian16/g16/l601.exe)
 Copying SCF densities to generalized density rwf, IOpCl= 1 IROHF=0.

 **********************************************************************

            Population analysis using the SCF Density.

 **********************************************************************

 Orbital symmetries:
 Alpha Orbitals:
       Occupied  (A1) (A1) (B2) (A1) (B1) (A1)
       Virtual   (B2) (B2) (A1) (B1) (A1) (B2) (A1) (A1) (B2) (B1)
                 (A1) (B2) (A1)
 Beta  Orbitals:
       Occupied  (A1) (A1) (B2) (A1) (B1)
       Virtual   (A1) (B2) (B2) (A1) (B1) (A1) (B2) (A1) (A1) (B2)
                 (B1) (A1) (B2) (A1)
 The electronic state is 2-A1.
 Alpha  occ. eigenvalues --  -18.79615  -0.72455  -0.23924  -0.08438  -0.00940
 Alpha  occ. eigenvalues --    0.19928
 Alpha virt. eigenvalues --    0.30964   0.64343   0.68191   1.03122   1.04142
 Alpha virt. eigenvalues --    1.15520   1.44155   2.42524   2.46001   5.04374
 Alpha virt. eigenvalues --    5.15445   5.27786  50.04075
  Beta  occ. eigenvalues --  -18.79060  -0.70892  -0.23165  -0.07570  -0.00300
  Beta virt. eigenvalues --    0.27848   0.34244   0.65559   0.70401   1.04204
  Beta virt. eigenvalues --    1.05366   1.16556   1.45628   2.43452   2.46994
  Beta virt. eigenvalues --    5.04865   5.16635   5.28098  50.04705
     Alpha Molecular Orbital Coefficients:
                           1         2         3         4         5
                        (A1)--O   (A1)--O   (B2)--O   (A1)--O   (B1)--O
     Eigenvalues --   -18.79615  -0.72455  -0.23924  -0.08438  -0.00940
   1 1   O  1S          0.55126  -0.11555   0.00000  -0.04515   0.00000
   2        2S          0.46993  -0.18578   0.00000  -0.07257   0.00000
   3        2PX         0.00000   0.00000   0.00000   0.00000   0.30129
   4        2PY         0.00000   0.00000   0.23252   0.00000   0.00000
   5        2PZ        -0.00160  -0.05970   0.00000   0.26047   0.00000
   6        3S          0.01233   0.54196   0.00000   0.20497   0.00000
   7        3PX         0.00000   0.00000   0.00000   0.00000   0.41074
   8        3PY         0.00000   0.00000   0.35216   0.00000   0.00000
   9        3PZ         0.00014  -0.11082   0.00000   0.35500   0.00000
  10        4S         -0.00604   0.40642   0.00000   0.34671   0.00000
  11        4PX         0.00000   0.00000   0.00000   0.00000   0.51390
  12        4PY         0.00000   0.00000   0.21644   0.00000   0.00000
  13        4PZ         0.00097  -0.05229   0.00000   0.39024   0.00000
  14 2   H  1S         -0.00011   0.10377   0.16007  -0.08647   0.00000
  15        2S          0.00092   0.04318   0.17302  -0.09991   0.00000
  16        3S          0.00074   0.00847   0.13616  -0.05383   0.00000
  17 3   H  1S         -0.00011   0.10377  -0.16007  -0.08647   0.00000
  18        2S          0.00092   0.04318  -0.17302  -0.09991   0.00000
  19        3S          0.00074   0.00847  -0.13616  -0.05383   0.00000
                           6         7         8         9        10
                        (A1)--O   (B2)--V   (B2)--V   (A1)--V   (B1)--V
     Eigenvalues --     0.19928   0.30964   0.64343   0.68191   1.03122
   1 1   O  1S         -0.03784   0.00000   0.00000   0.03592   0.00000
   2        2S         -0.06016   0.00000   0.00000   0.06081   0.00000
   3        2PX         0.00000   0.00000   0.00000   0.00000  -0.26885
   4        2PY         0.00000  -0.15189  -0.13942   0.00000   0.00000
   5        2PZ        -0.09592   0.00000   0.00000   0.12695   0.00000
   6        3S          0.13818   0.00000   0.00000  -0.18430   0.00000
   7        3PX         0.00000   0.00000   0.00000   0.00000  -0.82066
   8        3PY         0.00000  -0.18262  -0.20374   0.00000   0.00000
   9        3PZ        -0.14753   0.00000   0.00000   0.21361   0.00000
  10        4S          0.85046   0.00000   0.00000  -1.08331   0.00000
  11        4PX         0.00000   0.00000   0.00000   0.00000   1.11781
  12        4PY         0.00000  -0.50922  -1.02424   0.00000   0.00000
  13        4PZ        -0.23491   0.00000   0.00000   0.87953   0.00000
  14 2   H  1S         -0.03997   0.02076   0.10904   0.09264   0.00000
  15        2S         -0.00041  -0.08613   1.41396   1.66153   0.00000
  16        3S         -0.80150   1.52251  -0.81973  -0.66606   0.00000
  17 3   H  1S         -0.03997  -0.02076  -0.10904   0.09264   0.00000
  18        2S         -0.00041   0.08613  -1.41396   1.66153   0.00000
  19        3S         -0.80150  -1.52251   0.81973  -0.66606   0.00000
                          11        12        13        14        15
                        (A1)--V   (B2)--V   (A1)--V   (A1)--V   (B2)--V
     Eigenvalues --     1.04142   1.15520   1.44155   2.42524   2.46001
   1 1   O  1S          0.02710   0.00000   0.12186  -0.00837   0.00000
   2        2S          0.04681   0.00000   0.24353  -0.00613   0.00000
   3        2PX         0.00000   0.00000   0.00000   0.00000   0.00000
   4        2PY         0.00000  -0.25797   0.00000   0.00000   0.18048
   5        2PZ        -0.24613   0.00000   0.04758  -0.16396   0.00000
   6        3S         -0.18865   0.00000  -1.80906  -0.12858   0.00000
   7        3PX         0.00000   0.00000   0.00000   0.00000   0.00000
   8        3PY         0.00000  -0.86450   0.00000   0.00000  -0.06776
   9        3PZ        -0.80258   0.00000   0.13501   0.00709   0.00000
  10        4S         -0.38424   0.00000   2.96107  -0.43958   0.00000
  11        4PX         0.00000   0.00000   0.00000   0.00000   0.00000
  12        4PY         0.00000   1.74667   0.00000   0.00000  -0.27848
  13        4PZ         1.43004   0.00000  -0.85499   0.36367   0.00000
  14 2   H  1S          0.03823  -0.00691   0.01274  -1.08978  -1.10407
  15        2S          0.41681  -0.25296  -0.77765   1.60762   1.66995
  16        3S          0.03012  -0.75847  -0.31682  -0.50799  -0.82530
  17 3   H  1S          0.03823   0.00691   0.01274  -1.08978   1.10407
  18        2S          0.41681   0.25296  -0.77765   1.60762  -1.66995
  19        3S          0.03012   0.75847  -0.31682  -0.50799   0.82530
                          16        17        18        19
                        (B1)--V   (A1)--V   (B2)--V   (A1)--V
     Eigenvalues --     5.04374   5.15445   5.27786  50.04075
   1 1   O  1S          0.00000   0.00586   0.00000  -2.24592
   2        2S          0.00000   0.01206   0.00000   2.32997
   3        2PX        -1.26259   0.00000   0.00000   0.00000
   4        2PY         0.00000   0.00000  -1.27318   0.00000
   5        2PZ         0.00000  -1.26324   0.00000  -0.00479
   6        3S          0.00000  -0.08426   0.00000  -0.24843
   7        3PX         1.38910   0.00000   0.00000   0.00000
   8        3PY         0.00000   0.00000   1.50464   0.00000
   9        3PZ         0.00000   1.43508   0.00000   0.01495
  10        4S          0.00000   0.34681   0.00000   0.24891
  11        4PX        -0.53872   0.00000   0.00000   0.00000
  12        4PY         0.00000   0.00000  -0.83479   0.00000
  13        4PZ         0.00000  -0.70656   0.00000  -0.05284
  14 2   H  1S          0.00000   0.24054  -0.27204   0.00608
  15        2S          0.00000  -0.37242   0.32945  -0.04437
  16        3S          0.00000   0.02251   0.16816  -0.03114
  17 3   H  1S          0.00000   0.24054   0.27204   0.00608
  18        2S          0.00000  -0.37242  -0.32945  -0.04437
  19        3S          0.00000   0.02251  -0.16816  -0.03114
     Beta Molecular Orbital Coefficients:
                           1         2         3         4         5
                        (A1)--O   (A1)--O   (B2)--O   (A1)--O   (B1)--O
     Eigenvalues --   -18.79060  -0.70892  -0.23165  -0.07570  -0.00300
   1 1   O  1S          0.55120  -0.11525   0.00000  -0.04424   0.00000
   2        2S          0.47002  -0.18500   0.00000  -0.07149   0.00000
   3        2PX         0.00000   0.00000   0.00000   0.00000   0.30038
   4        2PY         0.00000   0.00000   0.23500   0.00000   0.00000
   5        2PZ        -0.00152  -0.05223   0.00000   0.25919   0.00000
   6        3S          0.01224   0.53447   0.00000   0.20847   0.00000
   7        3PX         0.00000   0.00000   0.00000   0.00000   0.41028
   8        3PY         0.00000   0.00000   0.35659   0.00000   0.00000
   9        3PZ         0.00020  -0.09981   0.00000   0.35548   0.00000
  10        4S         -0.00599   0.41982   0.00000   0.32264   0.00000
  11        4PX         0.00000   0.00000   0.00000   0.00000   0.51513
  12        4PY         0.00000   0.00000   0.23163   0.00000   0.00000
  13        4PZ         0.00093  -0.05285   0.00000   0.39493   0.00000
  14 2   H  1S         -0.00010   0.10485   0.16126  -0.09005   0.00000
  15        2S          0.00091   0.04145   0.16625  -0.10032   0.00000
  16        3S          0.00073   0.00754   0.11004  -0.04645   0.00000
  17 3   H  1S         -0.00010   0.10485  -0.16126  -0.09005   0.00000
  18        2S          0.00091   0.04145  -0.16625  -0.10032   0.00000
  19        3S          0.00073   0.00754  -0.11004  -0.04645   0.00000
                           6         7         8         9        10
                        (A1)--V   (B2)--V   (B2)--V   (A1)--V   (B1)--V
     Eigenvalues --     0.27848   0.34244   0.65559   0.70401   1.04204
   1 1   O  1S         -0.03833   0.00000   0.00000   0.03656   0.00000
   2        2S         -0.06097   0.00000   0.00000   0.06153   0.00000
   3        2PX         0.00000   0.00000   0.00000   0.00000  -0.26990
   4        2PY         0.00000  -0.14809  -0.13974   0.00000   0.00000
   5        2PZ        -0.09028   0.00000   0.00000   0.12727   0.00000
   6        3S          0.14147   0.00000   0.00000  -0.17951   0.00000
   7        3PX         0.00000   0.00000   0.00000   0.00000  -0.82047
   8        3PY         0.00000  -0.17843  -0.20314   0.00000   0.00000
   9        3PZ        -0.13393   0.00000   0.00000   0.21117   0.00000
  10        4S          0.83546   0.00000   0.00000  -1.11858   0.00000
  11        4PX         0.00000   0.00000   0.00000   0.00000   1.11685
  12        4PY         0.00000  -0.49277  -1.02379   0.00000   0.00000
  13        4PZ        -0.23200   0.00000   0.00000   0.90234   0.00000
  14 2   H  1S         -0.04048   0.02737   0.11387   0.09598   0.00000
  15        2S          0.02868  -0.09482   1.40790   1.66396   0.00000
  16        3S         -0.81475   1.52769  -0.81072  -0.64793   0.00000
  17 3   H  1S         -0.04048  -0.02737  -0.11387   0.09598   0.00000
  18        2S          0.02868   0.09482  -1.40790   1.66396   0.00000
  19        3S         -0.81475  -1.52769   0.81072  -0.64793   0.00000
                          11        12        13        14        15
                        (A1)--V   (B2)--V   (A1)--V   (A1)--V   (B2)--V
     Eigenvalues --     1.05366   1.16556   1.45628   2.43452   2.46994
   1 1   O  1S          0.02738   0.00000   0.12202  -0.00900   0.00000
   2        2S          0.04787   0.00000   0.24377  -0.00740   0.00000
   3        2PX         0.00000   0.00000   0.00000   0.00000   0.00000
   4        2PY         0.00000  -0.25829   0.00000   0.00000   0.18012
   5        2PZ        -0.24778   0.00000   0.05101  -0.16437   0.00000
   6        3S         -0.20558   0.00000  -1.81007  -0.11827   0.00000
   7        3PX         0.00000   0.00000   0.00000   0.00000   0.00000
   8        3PY         0.00000  -0.86302   0.00000   0.00000  -0.06850
   9        3PZ        -0.80544   0.00000   0.15080   0.00445   0.00000
  10        4S         -0.32495   0.00000   2.95698  -0.46255   0.00000
  11        4PX         0.00000   0.00000   0.00000   0.00000   0.00000
  12        4PY         0.00000   1.74817   0.00000   0.00000  -0.28376
  13        4PZ         1.40726   0.00000  -0.86354   0.37367   0.00000
  14 2   H  1S          0.03953  -0.00749   0.00539  -1.08915  -1.10321
  15        2S          0.38970  -0.25254  -0.76453   1.61803   1.67525
  16        3S          0.02395  -0.76457  -0.32484  -0.50634  -0.82278
  17 3   H  1S          0.03953   0.00749   0.00539  -1.08915   1.10321
  18        2S          0.38970   0.25254  -0.76453   1.61803  -1.67525
  19        3S          0.02395   0.76457  -0.32484  -0.50634   0.82278
                          16        17        18        19
                        (B1)--V   (A1)--V   (B2)--V   (A1)--V
     Eigenvalues --     5.04865   5.16635   5.28098  50.04705
   1 1   O  1S          0.00000   0.00577   0.00000  -2.24594
   2        2S          0.00000   0.01162   0.00000   2.32996
   3        2PX        -1.26258   0.00000   0.00000   0.00000
   4        2PY         0.00000   0.00000  -1.27313   0.00000
   5        2PZ         0.00000  -1.26371   0.00000  -0.00483
   6        3S          0.00000  -0.08205   0.00000  -0.24846
   7        3PX         1.38935   0.00000   0.00000   0.00000
   8        3PY         0.00000   0.00000   1.50500   0.00000
   9        3PZ         0.00000   1.43430   0.00000   0.01503
  10        4S          0.00000   0.34415   0.00000   0.24894
  11        4PX        -0.53954   0.00000   0.00000   0.00000
  12        4PY         0.00000   0.00000  -0.83622   0.00000
  13        4PZ         0.00000  -0.70623   0.00000  -0.05287
  14 2   H  1S          0.00000   0.24030  -0.27223   0.00610
  15        2S          0.00000  -0.37203   0.32985  -0.04439
  16        3S          0.00000   0.02313   0.16879  -0.03115
  17 3   H  1S          0.00000   0.24030   0.27223   0.00610
  18        2S          0.00000  -0.37203  -0.32985  -0.04439
  19        3S          0.00000   0.02313  -0.16879  -0.03115
          Condensed to atoms (all electrons):
               1          2          3
     1  O    9.280415  -0.309173  -0.309173
     2  H   -0.309173   1.109302   0.368836
     3  H   -0.309173   0.368836   1.109302
          Atomic-Atomic Spin Densities.
               1          2          3
     1  O    1.033660  -0.567035  -0.567035
     2  H   -0.567035   0.690657   0.426583
     3  H   -0.567035   0.426583   0.690657
 Mulliken charges and spin densities:
               1          2
     1  O   -0.662070  -0.100410
     2  H   -0.168965   0.550205
     3  H   -0.168965   0.550205
 Sum of Mulliken charges =  -1.00000   1.00000
 Mulliken charges and spin densities with hydrogens summed into heavy atoms:
               1          2
     1  O   -1.000000   1.000000
 Electronic spatial extent (au):  <R**2>=             33.2263
 Charge=             -1.0000 electrons
 Dipole moment (field-independent basis, Debye):
    X=              0.0000    Y=             -0.0000    Z=              0.5074  Tot=              0.5074
 Quadrupole moment (field-independent basis, Debye-Ang):
   XX=            -11.8484   YY=            -12.0436   ZZ=            -12.7773
   XY=             -0.0000   XZ=             -0.0000   YZ=              0.0000
 Traceless Quadrupole moment (field-independent basis, Debye-Ang):
   XX=              0.3747   YY=              0.1795   ZZ=             -0.5542
   XY=             -0.0000   XZ=             -0.0000   YZ=              0.0000
 Octapole moment (field-independent basis, Debye-Ang**2):
  XXX=              0.0000  YYY=              0.0000  ZZZ=              7.0587  XYY=              0.0000
  XXY=             -0.0000  XXZ=              2.0834  XZZ=              0.0000  YZZ=             -0.0000
  YYZ=              2.9306  XYZ=              0.0000
 Hexadecapole moment (field-independent basis, Debye-Ang**3):
 XXXX=            -16.6552 YYYY=            -33.1177 ZZZZ=            -26.7951 XXXY=             -0.0000
 XXXZ=             -0.0000 YYYX=             -0.0000 YYYZ=              0.0000 ZZZX=             -0.0000
 ZZZY=              0.0000 XXYY=             -8.1647 XXZZ=             -7.2043 YYZZ=            -10.0685
 XXYZ=              0.0000 YYXZ=             -0.0000 ZZXY=             -0.0000
 N-N= 9.263662579486D+00 E-N=-2.028415540935D+02  KE= 7.673265264963D+01
 Symmetry A1   KE= 6.865079025166D+01
 Symmetry A2   KE= 0.000000000000D+00
 Symmetry B1   KE= 4.559225918913D+00
 Symmetry B2   KE= 3.522636479061D+00
 Symmetry A1   SP= 1.000000000000D+00
 Symmetry A2   SP= 0.000000000000D+00
 Symmetry B1   SP= 3.277610930059D-16
 Symmetry B2   SP= 1.267913454350D-15
 Orbital energies and kinetic energies (alpha):
                                 1                 2
   1         (A1)--O         -18.796153         29.131053
   2         (A1)--O          -0.724546          2.644882
   3         (B2)--O          -0.239240          1.744556
   4         (A1)--O          -0.084376          2.212988
   5         (B1)--O          -0.009395          2.283224
   6         (A1)--O           0.199283          0.718777
   7         (B2)--V           0.309643          0.766822
   8         (B2)--V           0.643427          1.364824
   9         (A1)--V           0.681907          1.582565
  10         (B1)--V           1.031218          2.677047
  11         (A1)--V           1.041424          2.593449
  12         (B2)--V           1.155201          2.709438
  13         (A1)--V           1.441551          4.321367
  14         (A1)--V           2.425243          4.083729
  15         (B2)--V           2.460014          4.077493
  16         (B1)--V           5.043743         11.637494
  17         (A1)--V           5.154450         11.722856
  18         (B2)--V           5.277861         11.863002
  19         (A1)--V          50.040751        123.789276
 Orbital energies and kinetic energies (beta):
                                 1                 2
   1         (A1)--O         -18.790595         29.129970
   2         (A1)--O          -0.708915          2.611432
   3         (B2)--O          -0.231646          1.778081
   4         (A1)--O          -0.075702          2.201689
   5         (B1)--O          -0.003001          2.276002
   6         (A1)--V           0.278480          0.698294
   7         (B2)--V           0.342445          0.737894
   8         (B2)--V           0.655586          1.372078
   9         (A1)--V           0.704013          1.599737
  10         (B1)--V           1.042043          2.684725
  11         (A1)--V           1.053661          2.618440
  12         (B2)--V           1.165558          2.706988
  13         (A1)--V           1.456280          4.336516
  14         (A1)--V           2.434515          4.083169
  15         (B2)--V           2.469935          4.069210
  16         (B1)--V           5.048647         11.637038
  17         (A1)--V           5.166346         11.730383
  18         (B2)--V           5.280975         11.861883
  19         (A1)--V          50.047048        123.791312
 Total kinetic energy from orbitals= 7.673265264963D+01
                          Isotropic Fermi Contact Couplings
        Atom                 a.u.       MegaHertz       Gauss      10(-4) cm-1
     1  O(17)              0.71103    -431.02450    -153.80026    -143.77430
     2  H(1)               0.00026       1.15608       0.41252       0.38563
     3  H(1)               0.00026       1.15608       0.41252       0.38563
 --------------------------------------------------------
       Center         ----  Spin Dipole Couplings  ----
                      3XX-RR        3YY-RR        3ZZ-RR
 --------------------------------------------------------
     1   Atom       -0.156493     -0.253031      0.409524
     2   Atom       -0.032553      0.045340     -0.012787
     3   Atom       -0.032553      0.045340     -0.012787
 --------------------------------------------------------
                        XY            XZ            YZ
 --------------------------------------------------------
     1   Atom        0.000000      0.000000      0.000000
     2   Atom        0.000000      0.000000     -0.032943
     3   Atom        0.000000      0.000000      0.032943
 --------------------------------------------------------


 ---------------------------------------------------------------------------------
              Anisotropic Spin Dipole Couplings in Principal Axis System
 ---------------------------------------------------------------------------------

       Atom             a.u.   MegaHertz   Gauss  10(-4) cm-1        Axes

              Baa    -0.2530    18.309     6.533     6.107 -0.0000  1.0000 -0.0000
     1 O(17)  Bbb    -0.1565    11.324     4.041     3.777  1.0000  0.0000  0.0000
              Bcc     0.4095   -29.633   -10.574    -9.884  0.0000  0.0000  1.0000
 
              Baa    -0.0326   -17.369    -6.198    -5.794  1.0000  0.0000  0.0000
     2 H(1)   Bbb    -0.0277   -14.755    -5.265    -4.922 -0.0000  0.4114  0.9115
              Bcc     0.0602    32.124    11.463    10.715 -0.0000  0.9115 -0.4114
 
              Baa    -0.0326   -17.369    -6.198    -5.794  1.0000 -0.0000  0.0000
     3 H(1)   Bbb    -0.0277   -14.755    -5.265    -4.922 -0.0000 -0.4114  0.9115
              Bcc     0.0602    32.124    11.463    10.715  0.0000  0.9115  0.4114
 

 ---------------------------------------------------------------------------------

 No NMR shielding tensors so no spin-rotation constants.
 Leave Link  601 at Wed Jun 12 13:44:01 2024, MaxMem=   104857600 cpu:               0.1 elap:               0.1
 (Enter /home/allouche/Softwares/Gaussian16/g16/l604.exe)
 Evaluate density and density gradient.
 Using the total density.
 Map the density over a grid of points, CutOff= 1.00D-06
 Writing cube to file h2o_m_Grad80.cube.
 IGUnit=  -31 Origin=   -3.156480   -3.156480   -3.040080 NVal=    4
     N1=   80 XYZInc=    0.079911    0.000000    0.000000
     N2=   80 XYZInc=    0.000000    0.079911    0.000000
     N3=   80 XYZInc=    0.000000    0.000000    0.079911
 Using the SCF density.
 There are    512000 points.  Will hold    317680 in memory.
 LenV=    78489438 MDV=   104857600.
 Integrated density= 1.0884523571864566D+01 error=-1.1547642813543391D-01
 Integrated density gradient=
-8.5214718807678381D-03-1.8211632904538582D+00 1.8284671739989842D+00
 Leave Link  604 at Wed Jun 12 13:44:02 2024, MaxMem=   104857600 cpu:               0.9 elap:               1.3
 (Enter /home/allouche/Softwares/Gaussian16/g16/l607.exe)
 ******************************Gaussian NBO Version 3.1******************************
             N A T U R A L   A T O M I C   O R B I T A L   A N D
          N A T U R A L   B O N D   O R B I T A L   A N A L Y S I S
 ******************************Gaussian NBO Version 3.1******************************
       /RESON  / : Allow strongly delocalized NBO set

 Analyzing the SCF density

 Job title: Input file generated by gabedit...                              

 Storage needed:      1243 in NPA ( 104857537 available)


 NATURAL POPULATIONS:  Natural atomic orbital occupancies 
                                                          
   NAO  Atom  No  lang   Type(AO)    Occupancy
 --------------------------------------------
     1    O    1  S      Cor( 1S)     1.99984
     2    O    1  S      Val( 2S)     1.79008
     3    O    1  S      Ryd( 3S)     0.02293
     4    O    1  S      Ryd( 4S)     0.00000
     5    O    1  px     Val( 2p)     1.99849
     6    O    1  px     Ryd( 3p)     0.00151
     7    O    1  px     Ryd( 4p)     0.00001
     8    O    1  py     Val( 2p)     1.44674
     9    O    1  py     Ryd( 3p)     0.00372
    10    O    1  py     Ryd( 4p)     0.00001
    11    O    1  pz     Val( 2p)     1.80400
    12    O    1  pz     Ryd( 3p)     0.00209
    13    O    1  pz     Ryd( 4p)     0.00007

    14    H    2  S      Val( 1S)     0.81572
    15    H    2  S      Ryd( 2S)     0.14918
    16    H    2  S      Ryd( 3S)     0.00036

    17    H    3  S      Val( 1S)     0.81572
    18    H    3  S      Ryd( 2S)     0.14918
    19    H    3  S      Ryd( 3S)     0.00036


 Summary of Natural Population Analysis:                  
                                                          
                                       Natural Population 
                Natural  -----------------------------------------------
    Atom  No    Charge         Core      Valence    Rydberg      Total
 -----------------------------------------------------------------------
      O    1   -1.06949      1.99984     7.03931    0.03033     9.06949
      H    2    0.03474      0.00000     0.81572    0.14954     0.96526
      H    3    0.03474      0.00000     0.81572    0.14954     0.96526
 =======================================================================
   * Total *   -1.00000      1.99984     8.67075    0.32941    11.00000

                                 Natural Population      
 --------------------------------------------------------
   Core                       1.99984 ( 99.9922% of   2)
   Valence                    8.67075 ( 96.3417% of   9)
   Natural Minimal Basis     10.67059 ( 97.0054% of  11)
   Natural Rydberg Basis      0.32941 (  2.9946% of  11)
 --------------------------------------------------------

    Atom  No          Natural Electron Configuration
 ----------------------------------------------------------------------------
      O    1      [core]2S( 1.79)2p( 5.25)3S( 0.02)3p( 0.01)
      H    2            1S( 0.82)2S( 0.15)
      H    3            1S( 0.82)2S( 0.15)


                                 Natural Population      
 --------------------------------------------------------
   Core                       0.99989 ( 99.9895% of   1)
   Valence                    3.93274 ( 98.3185% of   4)
   Natural Minimal Basis      4.93264 ( 98.6527% of   5)
   Natural Rydberg Basis      0.06736 (  1.3473% of   5)
 --------------------------------------------------------

    Atom  No          Natural Electron Configuration
 ----------------------------------------------------------------------------
      O    1      [core]2S( 0.86)2p( 2.59)
      H    2            1S( 0.24)2S( 0.03)
      H    3            1S( 0.24)2S( 0.03)


 NBO analysis skipped by request.
 Leave Link  607 at Wed Jun 12 13:44:02 2024, MaxMem=   104857600 cpu:               0.1 elap:               0.1
 (Enter /home/allouche/Softwares/Gaussian16/g16/l9999.exe)

 Test job not archived.
 1\1\GINC-ILMFIXE1061\SP\UB3LYP\6-311G\H2O1(1-,2)\TMAAMAATUAI\12-Jun-20
 24\0\\#P B3LYP/6-311G Cube=(80,Density,Full,Gradient) # Gfinput IOP(6/
 7=3) Pop=NPA Test Density=current # Units(Ang,Deg)\\Input file generat
 ed by gabedit...\\-1,2\O,0,0.,-0.388,0.\H,0,0.751,0.194,0.\H,0,-0.751,
 0.194,0.\\Version=ES64L-G16RevC.01\State=2-A1\HF=-76.3055097\S2=0.7505
 69\S2-1=0.\S2A=0.75\RMSD=4.294e-09\Dipole=0.,-0.1996085,0.\Quadrupole=
 0.1334638,-0.4120309,0.2785671,0.,0.,0.\PG=C02V [C2(O1),SGV(H2)]\\@


 REPARTEE - WHAT YOU THINK OF AFTER YOU BECOME A DEPARTEE.
 Job cpu time:       0 days  0 hours  0 minutes  1.5 seconds.
 Elapsed time:       0 days  0 hours  0 minutes  2.0 seconds.
 File lengths (MBytes):  RWF=     17 Int=      0 D2E=      0 Chk=      2 Scr=      2
 Normal termination of Gaussian 16 at Wed Jun 12 13:44:02 2024.
