Input file generated by gabedit...                                      
SP        UB3LYP                                                      6-311G              
Number of atoms                            I                3
Info1-9                                    I   N=           9
          13          12           0           0           0         111
           1          18        -502
Charge                                     I                0
Multiplicity                               I                1
Number of electrons                        I               10
Number of alpha electrons                  I                5
Number of beta electrons                   I                5
Number of basis functions                  I               19
Number of independent functions            I               19
Number of point charges in /Mol/           I                0
Number of translation vectors              I                0
Atomic numbers                             I   N=           3
           8           1           1
Nuclear charges                            R   N=           3
  8.00000000E+00  1.00000000E+00  1.00000000E+00
Current cartesian coordinates              R   N=           9
  0.00000000E+00  1.02866426E-32  2.19964121E-01  0.00000000E+00  1.41918432E+00
 -8.79856484E-01 -1.73799953E-16 -1.41918432E+00 -8.79856484E-01
Force Field                                I                0
Int Atom Types                             I   N=           3
           0           0           0
MM charges                                 R   N=           3
  7.90505033-323  4.94065646-324  4.94065646-324
Integer atomic weights                     I   N=           3
           0           0           0
Real atomic weights                        R   N=           3
  0.00000000E+00  0.00000000E+00  0.00000000E+00
Atom fragment info                         I   N=           3
           0           0           0
Atom residue num                           I   N=           3
           0           0           0
Nuclear spins                              I   N=           3
           0           0           0
Nuclear ZEff                               R   N=           3
  0.00000000E+00  0.00000000E+00  0.00000000E+00
Nuclear ZNuc                               R   N=           3
  0.00000000E+00  0.00000000E+00  0.00000000E+00
Nuclear QMom                               R   N=           3
  0.00000000E+00  0.00000000E+00  0.00000000E+00
Nuclear GFac                               R   N=           3
  0.00000000E+00  0.00000000E+00  0.00000000E+00
MicOpt                                     I   N=           3
          -1          -1          -1
Number of contracted shells                I               10
Number of primitive shells                 I               21
Pure/Cartesian d shells                    I                0
Pure/Cartesian f shells                    I                0
Highest angular momentum                   I                1
Largest degree of contraction              I                6
Shell types                                I   N=          10
           0          -1          -1          -1           0           0
           0           0           0           0
Number of primitives per shell             I   N=          10
           6           3           1           1           3           1
           1           3           1           1
Shell to atom map                          I   N=          10
           1           1           1           1           2           2
           2           3           3           3
Primitive exponents                        R   N=          21
  8.58850000E+03  1.29723000E+03  2.99296000E+02  8.73771000E+01  2.56789000E+01
  3.74004000E+00  4.21175000E+01  9.62837000E+00  2.85332000E+00  9.05661000E-01
  2.55611000E-01  3.38650000E+01  5.09479000E+00  1.15879000E+00  3.25840000E-01
  1.02741000E-01  3.38650000E+01  5.09479000E+00  1.15879000E+00  3.25840000E-01
  1.02741000E-01
Contraction coefficients                   R   N=          21
  1.89515008E-03  1.43859006E-02  7.07320031E-02  2.40001011E-01  5.94797026E-01
  2.80802012E-01  1.13889012E-01  9.20811101E-01 -3.27447036E-03  1.00000000E+00
  1.00000000E+00  2.54938145E-02  1.90373109E-01  8.52161486E-01  1.00000000E+00
  1.00000000E+00  2.54938145E-02  1.90373109E-01  8.52161486E-01  1.00000000E+00
  1.00000000E+00
P(S=P) Contraction coefficients            R   N=          21
  0.00000000E+00  0.00000000E+00  0.00000000E+00  0.00000000E+00  0.00000000E+00
  0.00000000E+00  3.65113974E-02  2.37152983E-01  8.19701941E-01  1.00000000E+00
  1.00000000E+00  0.00000000E+00  0.00000000E+00  0.00000000E+00  0.00000000E+00
  0.00000000E+00  0.00000000E+00  0.00000000E+00  0.00000000E+00  0.00000000E+00
  0.00000000E+00
Coordinates of each shell                  R   N=          30
 -6.77816779E-34  5.42253424E-33  2.19964121E-01 -6.77816779E-34  5.42253424E-33
  2.19964121E-01 -6.77816779E-34  5.42253424E-33  2.19964121E-01 -6.77816779E-34
  5.42253424E-33  2.19964121E-01  0.00000000E+00  1.41918432E+00 -8.79856484E-01
  0.00000000E+00  1.41918432E+00 -8.79856484E-01  0.00000000E+00  1.41918432E+00
 -8.79856484E-01 -1.73799953E-16 -1.41918432E+00 -8.79856484E-01 -1.73799953E-16
 -1.41918432E+00 -8.79856484E-01 -1.73799953E-16 -1.41918432E+00 -8.79856484E-01
Constraint Structure                       R   N=           9
 -6.77816779E-34  5.42253424E-33  2.19964121E-01  0.00000000E+00  1.41918432E+00
 -8.79856484E-01 -1.73799953E-16 -1.41918432E+00 -8.79856484E-01
Num ILSW                                   I              100
ILSW                                       I   N=         100
           1           0           0           0           2           0
           0           0           0           0         402          -1
           5           0           0           0           0           0
           0           0           0           0           0           0
           1           0           0           0           0           0
           0           0      100000           0          -1           0
           0           0           0           0           0           0
           0           0           0           1           0           0
           0 -2000000000           1           0           0           0
           0           0           4          41           0           0
           0           0           5           0           0           0
           0           0           0           3           0           1
           0           0           0           0           0           0
           0           0           0           0           0           0
           0           0           0           0           0           0
           0           0           0           0           0           0
           0           0           0           0
Num RLSW                                   I               41
RLSW                                       R   N=          41
  8.00000000E-01  7.20000000E-01  1.00000000E+00  8.10000000E-01  2.00000000E-01
  0.00000000E+00  0.00000000E+00  1.00000000E+00  0.00000000E+00  0.00000000E+00
  0.00000000E+00  0.00000000E+00  1.00000000E+00  0.00000000E+00  0.00000000E+00
  0.00000000E+00  0.00000000E+00  1.00000000E+00  0.00000000E+00  0.00000000E+00
  0.00000000E+00  0.00000000E+00  1.00000000E+00  0.00000000E+00  0.00000000E+00
  0.00000000E+00  0.00000000E+00  1.00000000E+00  0.00000000E+00  0.00000000E+00
  0.00000000E+00  0.00000000E+00  1.00000000E+00  0.00000000E+00  0.00000000E+00
  0.00000000E+00  0.00000000E+00  0.00000000E+00  1.00000000E+00  1.00000000E+00
  0.00000000E+00
MxBond                                     I                2
NBond                                      I   N=           3
           2           1           1
IBond                                      I   N=           6
           2           3           1           0           1           0
RBond                                      R   N=           6
  1.00000000E+00  1.00000000E+00  1.00000000E+00  0.00000000E+00  1.00000000E+00
  0.00000000E+00
Virial Ratio                               R      2.000178583401118E+00
SCF Energy                                 R     -7.641430518294278E+01
Total Energy                               R     -7.641430518294278E+01
S**2                                       R      2.664535259100376E-15
S**2 after annihilation                    R      5.861977570020837E-14
RMS Density                                R      4.052659807165386E-10
External E-field                           R   N=          35
  0.00000000E+00  0.00000000E+00  0.00000000E+00  0.00000000E+00  0.00000000E+00
  0.00000000E+00  0.00000000E+00  0.00000000E+00  0.00000000E+00  0.00000000E+00
  0.00000000E+00  0.00000000E+00  0.00000000E+00  0.00000000E+00  0.00000000E+00
  0.00000000E+00  0.00000000E+00  0.00000000E+00  0.00000000E+00  0.00000000E+00
  0.00000000E+00  0.00000000E+00  0.00000000E+00  0.00000000E+00  0.00000000E+00
  0.00000000E+00  0.00000000E+00  0.00000000E+00  0.00000000E+00  0.00000000E+00
  0.00000000E+00  0.00000000E+00  0.00000000E+00  0.00000000E+00  0.00000000E+00
IOpCl                                      I                1
IROHF                                      I                0
Alpha Orbital Energies                     R   N=          19
 -1.91072786E+01 -1.02855757E+00 -5.39095519E-01 -3.64535590E-01 -3.00753030E-01
  2.09230930E-02  1.01662226E-01  3.78896890E-01  4.15685871E-01  7.61284572E-01
  7.82125269E-01  8.94064919E-01  1.16331763E+00  2.12937930E+00  2.16851906E+00
  4.74640227E+00  4.85924680E+00  4.97938875E+00  4.97301998E+01
Beta Orbital Energies                      R   N=          19
 -1.91072786E+01 -1.02855757E+00 -5.39095519E-01 -3.64535590E-01 -3.00753030E-01
  2.09230930E-02  1.01662226E-01  3.78896890E-01  4.15685871E-01  7.61284572E-01
  7.82125269E-01  8.94064919E-01  1.16331763E+00  2.12937930E+00  2.16851906E+00
  4.74640227E+00  4.85924680E+00  4.97938875E+00  4.97301998E+01
Alpha MO coefficients                      R   N=         361
  5.51281577E-01  4.69948739E-01  0.00000000E+00  0.00000000E+00 -2.23334038E-03
  1.21972098E-02  0.00000000E+00  0.00000000E+00  4.37960203E-04 -5.92976439E-03
  0.00000000E+00  0.00000000E+00  8.25233914E-04 -8.15266090E-05  8.68129821E-04
  7.26991515E-04 -8.15266090E-05  8.68129821E-04  7.26991515E-04 -1.14625453E-01
 -1.84106390E-01  0.00000000E+00  0.00000000E+00 -6.35358714E-02  5.35838115E-01
  0.00000000E+00  0.00000000E+00 -1.18751799E-01  4.09028856E-01  0.00000000E+00
  0.00000000E+00 -6.66699291E-02  1.07648325E-01  4.41055258E-02  1.82378337E-03
  1.07648325E-01  4.41055258E-02  1.82378337E-03  0.00000000E+00  0.00000000E+00
  0.00000000E+00  2.36171397E-01  0.00000000E+00  0.00000000E+00  0.00000000E+00
  3.59539870E-01  0.00000000E+00  0.00000000E+00  0.00000000E+00  2.08497311E-01
  0.00000000E+00  1.66436311E-01  1.95071439E-01  7.31911080E-02 -1.66436311E-01
 -1.95071439E-01 -7.31911080E-02 -4.93383443E-02 -7.99937643E-02  0.00000000E+00
  0.00000000E+00  2.60039468E-01  2.38202356E-01  0.00000000E+00  0.00000000E+00
  3.58981784E-01  3.36824195E-01  0.00000000E+00  0.00000000E+00  3.74444355E-01
 -8.73401786E-02 -1.08289875E-01 -4.22128531E-02 -8.73401786E-02 -1.08289875E-01
 -4.22128531E-02  0.00000000E+00  0.00000000E+00  3.05364800E-01  0.00000000E+00
  0.00000000E+00  0.00000000E+00  4.24617391E-01  0.00000000E+00  0.00000000E+00
  0.00000000E+00  4.95213369E-01  0.00000000E+00  0.00000000E+00  0.00000000E+00
  0.00000000E+00  0.00000000E+00  0.00000000E+00  0.00000000E+00  0.00000000E+00
 -4.07789033E-02 -6.58734968E-02  0.00000000E+00  0.00000000E+00 -1.05431655E-01
  1.71906380E-01  0.00000000E+00  0.00000000E+00 -1.75279247E-01  8.65193106E-01
  0.00000000E+00  0.00000000E+00 -2.53338739E-01 -4.41110217E-02 -9.39197896E-02
 -7.49888222E-01 -4.41110217E-02 -9.39197896E-02 -7.49888222E-01  0.00000000E+00
  0.00000000E+00  0.00000000E+00 -1.65375777E-01  0.00000000E+00  0.00000000E+00
  0.00000000E+00 -2.20630427E-01  0.00000000E+00  0.00000000E+00  0.00000000E+00
 -5.56781869E-01  0.00000000E+00  3.38108468E-02  7.69220376E-02  1.39647442E+00
 -3.38108468E-02 -7.69220376E-02 -1.39647442E+00  0.00000000E+00  0.00000000E+00
  0.00000000E+00 -1.32863287E-01  0.00000000E+00  0.00000000E+00  0.00000000E+00
 -2.03587414E-01  0.00000000E+00  0.00000000E+00  0.00000000E+00 -9.32317994E-01
  0.00000000E+00  1.19695311E-01  1.37993160E+00 -9.86502022E-01 -1.19695311E-01
 -1.37993160E+00  9.86502022E-01  3.26354711E-02  5.49854308E-02  0.00000000E+00
  0.00000000E+00  1.26406181E-01 -1.60604900E-01  0.00000000E+00  0.00000000E+00
  2.13641258E-01 -1.02920500E+00  0.00000000E+00  0.00000000E+00  8.53052123E-01
  1.08172312E-01  1.62856565E+00 -7.06288268E-01  1.08172312E-01  1.62856565E+00
 -7.06288268E-01  0.00000000E+00  0.00000000E+00 -2.68417478E-01  0.00000000E+00
  0.00000000E+00  0.00000000E+00 -8.08705831E-01  0.00000000E+00  0.00000000E+00
  0.00000000E+00  1.12418388E+00  0.00000000E+00  0.00000000E+00  0.00000000E+00
  0.00000000E+00  0.00000000E+00  0.00000000E+00  0.00000000E+00  0.00000000E+00
  2.30287208E-02  3.86474860E-02  0.00000000E+00  0.00000000E+00 -2.45846837E-01
 -1.28129573E-01  0.00000000E+00  0.00000000E+00 -7.94294125E-01 -4.97357065E-01
  0.00000000E+00  0.00000000E+00  1.46928794E+00  4.18890333E-02  4.49996277E-01
  4.87692849E-02  4.18890333E-02  4.49996277E-01  4.87692849E-02  0.00000000E+00
  0.00000000E+00  0.00000000E+00 -2.54974724E-01  0.00000000E+00  0.00000000E+00
  0.00000000E+00 -8.47040954E-01  0.00000000E+00  0.00000000E+00  0.00000000E+00
  1.78097149E+00  0.00000000E+00 -2.71055933E-03 -2.86856374E-01 -7.81613921E-01
  2.71055933E-03  2.86856374E-01  7.81613921E-01  1.22095230E-01  2.43602772E-01
  0.00000000E+00  0.00000000E+00  4.26422839E-02 -1.81120704E+00  0.00000000E+00
  0.00000000E+00  1.09376193E-01  2.95688744E+00  0.00000000E+00  0.00000000E+00
 -8.01591981E-01  1.32418667E-02 -7.56933951E-01 -3.31391615E-01  1.32418667E-02
 -7.56933951E-01 -3.31391615E-01 -7.97619619E-03 -5.33119452E-03  0.00000000E+00
  0.00000000E+00 -1.62520658E-01 -1.31735931E-01  0.00000000E+00  0.00000000E+00
  7.00450589E-03 -4.55211000E-01  0.00000000E+00  0.00000000E+00  3.80867865E-01
 -1.08775014E+00  1.63802944E+00 -5.22710129E-01 -1.08775014E+00  1.63802944E+00
 -5.22710129E-01  0.00000000E+00  0.00000000E+00  0.00000000E+00  1.78671389E-01
  0.00000000E+00  0.00000000E+00  0.00000000E+00 -7.40007917E-02  0.00000000E+00
  0.00000000E+00  0.00000000E+00 -2.78172953E-01  0.00000000E+00 -1.10172737E+00
  1.69042000E+00 -8.51146589E-01  1.10172737E+00 -1.69042000E+00  8.51146589E-01
  0.00000000E+00  0.00000000E+00 -1.26170402E+00  0.00000000E+00  0.00000000E+00
  0.00000000E+00  1.39194194E+00  0.00000000E+00  0.00000000E+00  0.00000000E+00
 -5.42942532E-01  0.00000000E+00  0.00000000E+00  0.00000000E+00  0.00000000E+00
  0.00000000E+00  0.00000000E+00  0.00000000E+00  0.00000000E+00  5.12930626E-03
  1.20466892E-02  0.00000000E+00  0.00000000E+00 -1.26285286E+00 -8.48585483E-02
  0.00000000E+00  0.00000000E+00  1.43712408E+00  3.53409963E-01  0.00000000E+00
  0.00000000E+00 -7.12975171E-01  2.39880920E-01 -3.75322645E-01  2.16619616E-02
  2.39880920E-01 -3.75322645E-01  2.16619616E-02  0.00000000E+00  0.00000000E+00
  0.00000000E+00 -1.27239165E+00  0.00000000E+00  0.00000000E+00  0.00000000E+00
  1.50745738E+00  0.00000000E+00  0.00000000E+00  0.00000000E+00 -8.41771655E-01
  0.00000000E+00 -2.71996212E-01  3.31491186E-01  1.70801782E-01  2.71996212E-01
 -3.31491186E-01 -1.70801782E-01 -2.24590824E+00  2.32998887E+00  0.00000000E+00
  0.00000000E+00 -4.58075548E-03 -2.48555319E-01  0.00000000E+00  0.00000000E+00
  1.47232495E-02  2.49034068E-01  0.00000000E+00  0.00000000E+00 -5.27281744E-02
  6.05568112E-03 -4.43353116E-02 -3.11913404E-02  6.05568112E-03 -4.43353116E-02
 -3.11913404E-02
Beta MO coefficients                       R   N=         361
  5.51281577E-01  4.69948739E-01  0.00000000E+00  0.00000000E+00 -2.23334038E-03
  1.21972098E-02  0.00000000E+00  0.00000000E+00  4.37960203E-04 -5.92976439E-03
  0.00000000E+00  0.00000000E+00  8.25233914E-04 -8.15266090E-05  8.68129821E-04
  7.26991515E-04 -8.15266090E-05  8.68129821E-04  7.26991515E-04 -1.14625453E-01
 -1.84106390E-01  0.00000000E+00  0.00000000E+00 -6.35358714E-02  5.35838115E-01
  0.00000000E+00  0.00000000E+00 -1.18751799E-01  4.09028856E-01  0.00000000E+00
  0.00000000E+00 -6.66699291E-02  1.07648325E-01  4.41055258E-02  1.82378337E-03
  1.07648325E-01  4.41055258E-02  1.82378337E-03  0.00000000E+00  0.00000000E+00
  0.00000000E+00  2.36171397E-01  0.00000000E+00  0.00000000E+00  0.00000000E+00
  3.59539870E-01  0.00000000E+00  0.00000000E+00  0.00000000E+00  2.08497311E-01
  0.00000000E+00  1.66436311E-01  1.95071439E-01  7.31911080E-02 -1.66436311E-01
 -1.95071439E-01 -7.31911080E-02 -4.93383443E-02 -7.99937643E-02  0.00000000E+00
  0.00000000E+00  2.60039468E-01  2.38202356E-01  0.00000000E+00  0.00000000E+00
  3.58981784E-01  3.36824195E-01  0.00000000E+00  0.00000000E+00  3.74444355E-01
 -8.73401786E-02 -1.08289875E-01 -4.22128531E-02 -8.73401786E-02 -1.08289875E-01
 -4.22128531E-02  0.00000000E+00  0.00000000E+00  3.05364800E-01  0.00000000E+00
  0.00000000E+00  0.00000000E+00  4.24617391E-01  0.00000000E+00  0.00000000E+00
  0.00000000E+00  4.95213369E-01  0.00000000E+00  0.00000000E+00  0.00000000E+00
  0.00000000E+00  0.00000000E+00  0.00000000E+00  0.00000000E+00  0.00000000E+00
 -4.07789033E-02 -6.58734968E-02  0.00000000E+00  0.00000000E+00 -1.05431655E-01
  1.71906380E-01  0.00000000E+00  0.00000000E+00 -1.75279247E-01  8.65193106E-01
  0.00000000E+00  0.00000000E+00 -2.53338739E-01 -4.41110217E-02 -9.39197896E-02
 -7.49888222E-01 -4.41110217E-02 -9.39197896E-02 -7.49888222E-01  0.00000000E+00
  0.00000000E+00  0.00000000E+00 -1.65375777E-01  0.00000000E+00  0.00000000E+00
  0.00000000E+00 -2.20630427E-01  0.00000000E+00  0.00000000E+00  0.00000000E+00
 -5.56781869E-01  0.00000000E+00  3.38108468E-02  7.69220376E-02  1.39647442E+00
 -3.38108468E-02 -7.69220376E-02 -1.39647442E+00  0.00000000E+00  0.00000000E+00
  0.00000000E+00 -1.32863287E-01  0.00000000E+00  0.00000000E+00  0.00000000E+00
 -2.03587414E-01  0.00000000E+00  0.00000000E+00  0.00000000E+00 -9.32317994E-01
  0.00000000E+00  1.19695311E-01  1.37993160E+00 -9.86502022E-01 -1.19695311E-01
 -1.37993160E+00  9.86502022E-01  3.26354711E-02  5.49854308E-02  0.00000000E+00
  0.00000000E+00  1.26406181E-01 -1.60604900E-01  0.00000000E+00  0.00000000E+00
  2.13641258E-01 -1.02920500E+00  0.00000000E+00  0.00000000E+00  8.53052123E-01
  1.08172312E-01  1.62856565E+00 -7.06288268E-01  1.08172312E-01  1.62856565E+00
 -7.06288268E-01  0.00000000E+00  0.00000000E+00 -2.68417478E-01  0.00000000E+00
  0.00000000E+00  0.00000000E+00 -8.08705831E-01  0.00000000E+00  0.00000000E+00
  0.00000000E+00  1.12418388E+00  0.00000000E+00  0.00000000E+00  0.00000000E+00
  0.00000000E+00  0.00000000E+00  0.00000000E+00  0.00000000E+00  0.00000000E+00
  2.30287208E-02  3.86474860E-02  0.00000000E+00  0.00000000E+00 -2.45846837E-01
 -1.28129573E-01  0.00000000E+00  0.00000000E+00 -7.94294125E-01 -4.97357065E-01
  0.00000000E+00  0.00000000E+00  1.46928794E+00  4.18890333E-02  4.49996277E-01
  4.87692849E-02  4.18890333E-02  4.49996277E-01  4.87692849E-02  0.00000000E+00
  0.00000000E+00  0.00000000E+00 -2.54974724E-01  0.00000000E+00  0.00000000E+00
  0.00000000E+00 -8.47040954E-01  0.00000000E+00  0.00000000E+00  0.00000000E+00
  1.78097149E+00  0.00000000E+00 -2.71055933E-03 -2.86856374E-01 -7.81613921E-01
  2.71055933E-03  2.86856374E-01  7.81613921E-01  1.22095230E-01  2.43602772E-01
  0.00000000E+00  0.00000000E+00  4.26422839E-02 -1.81120704E+00  0.00000000E+00
  0.00000000E+00  1.09376193E-01  2.95688744E+00  0.00000000E+00  0.00000000E+00
 -8.01591981E-01  1.32418667E-02 -7.56933951E-01 -3.31391615E-01  1.32418667E-02
 -7.56933951E-01 -3.31391615E-01 -7.97619619E-03 -5.33119452E-03  0.00000000E+00
  0.00000000E+00 -1.62520658E-01 -1.31735931E-01  0.00000000E+00  0.00000000E+00
  7.00450589E-03 -4.55211000E-01  0.00000000E+00  0.00000000E+00  3.80867865E-01
 -1.08775014E+00  1.63802944E+00 -5.22710129E-01 -1.08775014E+00  1.63802944E+00
 -5.22710129E-01  0.00000000E+00  0.00000000E+00  0.00000000E+00  1.78671389E-01
  0.00000000E+00  0.00000000E+00  0.00000000E+00 -7.40007917E-02  0.00000000E+00
  0.00000000E+00  0.00000000E+00 -2.78172953E-01  0.00000000E+00 -1.10172737E+00
  1.69042000E+00 -8.51146589E-01  1.10172737E+00 -1.69042000E+00  8.51146589E-01
  0.00000000E+00  0.00000000E+00 -1.26170402E+00  0.00000000E+00  0.00000000E+00
  0.00000000E+00  1.39194194E+00  0.00000000E+00  0.00000000E+00  0.00000000E+00
 -5.42942532E-01  0.00000000E+00  0.00000000E+00  0.00000000E+00  0.00000000E+00
  0.00000000E+00  0.00000000E+00  0.00000000E+00  0.00000000E+00  5.12930626E-03
  1.20466892E-02  0.00000000E+00  0.00000000E+00 -1.26285286E+00 -8.48585483E-02
  0.00000000E+00  0.00000000E+00  1.43712408E+00  3.53409963E-01  0.00000000E+00
  0.00000000E+00 -7.12975171E-01  2.39880920E-01 -3.75322645E-01  2.16619616E-02
  2.39880920E-01 -3.75322645E-01  2.16619616E-02  0.00000000E+00  0.00000000E+00
  0.00000000E+00 -1.27239165E+00  0.00000000E+00  0.00000000E+00  0.00000000E+00
  1.50745738E+00  0.00000000E+00  0.00000000E+00  0.00000000E+00 -8.41771655E-01
  0.00000000E+00 -2.71996212E-01  3.31491186E-01  1.70801782E-01  2.71996212E-01
 -3.31491186E-01 -1.70801782E-01 -2.24590824E+00  2.32998887E+00  0.00000000E+00
  0.00000000E+00 -4.58075548E-03 -2.48555319E-01  0.00000000E+00  0.00000000E+00
  1.47232495E-02  2.49034068E-01  0.00000000E+00  0.00000000E+00 -5.27281744E-02
  6.05568112E-03 -4.43353116E-02 -3.11913404E-02  6.05568112E-03 -4.43353116E-02
 -3.11913404E-02
Total SCF Density                          R   N=         190
  6.38969288E-01  5.68248240E-01  5.22291965E-01  0.00000000E+00  0.00000000E+00
  1.86495323E-01  0.00000000E+00  0.00000000E+00 -3.85185989E-34  1.11553858E-01
 -1.35565763E-02 -2.03074631E-02  0.00000000E+00  2.68690663E-33  1.43324640E-01
 -1.32898199E-01 -2.23947721E-01  0.00000000E+00  1.04495132E-33  5.57396637E-02
  6.88023240E-01  0.00000000E+00  0.00000000E+00  2.59326410E-01 -7.70371978E-34
  7.99111196E-34  0.00000000E+00  3.60599857E-01  0.00000000E+00  0.00000000E+00
 -7.70371978E-34  1.69826067E-01  3.18372881E-33  0.00000000E+00 -1.54074396E-33
  2.58537837E-01 -7.71629722E-03 -1.32950406E-02  0.00000000E+00  3.78289858E-33
  2.01786906E-01  4.37678161E-02  0.00000000E+00  5.36052025E-33  2.85940205E-01
 -1.33544872E-01 -2.10070693E-01  0.00000000E+00  2.31011085E-33  1.23225646E-01
  5.98666483E-01  0.00000000E+00  2.71224960E-33  1.44676481E-01  5.61580611E-01
  0.00000000E+00  0.00000000E+00  3.02441463E-01 -3.85185989E-34  9.31969712E-34
  0.00000000E+00  4.20552417E-01 -1.54074396E-33  1.29592719E-33  0.00000000E+00
  4.90472561E-01  0.00000000E+00  0.00000000E+00 -3.85185989E-34  9.84822026E-02
  1.84624558E-33  0.00000000E+00 -1.54074396E-33  1.49926193E-01  2.81066592E-33
  0.00000000E+00 -7.70371978E-34  8.69422577E-02 -2.07549149E-02 -3.45820719E-02
  0.00000000E+00  3.80955483E-33  2.03208800E-01  1.06958608E-01  0.00000000E+00
  5.33675414E-33  2.84672476E-01  1.97694201E-01  0.00000000E+00  5.42366138E-33
  2.89308272E-01 -1.61499248E-02 -2.57407764E-02 -5.77778983E-34  7.86149923E-02
 -5.91024834E-02  7.37528900E-02 -7.70371978E-34  1.19680980E-01 -8.82740022E-02
  2.92269389E-02 -3.85185989E-34  6.94030468E-02 -7.97620207E-02  9.38350422E-02
  1.53162243E-03  1.90076422E-03 -5.77778983E-34  9.21405885E-02 -6.19277266E-02
 -4.30178541E-03 -7.70371978E-34  1.40271920E-01 -8.82226455E-02 -3.68787299E-02
 -3.85185989E-34  8.13437411E-02 -8.69766565E-02  9.33456859E-02  1.03451229E-01
  4.54887463E-03  6.76528719E-03 -2.88889492E-34  3.45712925E-02 -2.21890143E-02
 -1.81381623E-02 -2.88889492E-34  5.26302430E-02 -3.07398089E-02 -2.69532822E-02
 -1.92592994E-34  3.05202985E-02 -3.18547123E-02  3.21296082E-02  3.78595788E-02
  1.42854359E-02 -1.61499248E-02 -2.57407764E-02  5.77778983E-34 -7.86149923E-02
 -5.91024834E-02  7.37528900E-02  7.70371978E-34 -1.19680980E-01 -8.82740022E-02
  2.92269389E-02  3.85185989E-34 -6.94030468E-02 -7.97620207E-02 -1.69691407E-02
 -3.65221971E-02 -1.65970239E-02  9.38350422E-02  1.53162243E-03  1.90076422E-03
  5.77778983E-34 -9.21405885E-02 -6.19277266E-02 -4.30178541E-03  7.70371978E-34
 -1.40271920E-01 -8.82226455E-02 -3.68787299E-02  3.85185989E-34 -8.13437411E-02
 -8.69766565E-02 -3.65221971E-02 -4.87602366E-02 -1.92504003E-02  9.33456859E-02
  1.03451229E-01  4.54887463E-03  6.76528719E-03  2.88889492E-34 -3.45712925E-02
 -2.21890143E-02 -1.81381623E-02  2.88889492E-34 -5.26302430E-02 -3.07398089E-02
 -2.69532822E-02  1.92592994E-34 -3.05202985E-02 -3.18547123E-02 -1.65970239E-02
 -1.92504003E-02 -7.14231725E-03  3.21296082E-02  3.78595788E-02  1.42854359E-02
Spin SCF Density                           R   N=         190
  1.66533454E-16  6.66133815E-16  8.88178420E-16  0.00000000E+00  0.00000000E+00
  0.00000000E+00  0.00000000E+00  0.00000000E+00  0.00000000E+00 -1.31838984E-16
  7.37257477E-17 -6.76542156E-17  0.00000000E+00 -1.36845553E-48 -8.32667268E-17
 -2.08166817E-16  2.49800181E-16  0.00000000E+00  1.95860198E-47  1.04777298E-15
 -3.83026943E-15  0.00000000E+00  0.00000000E+00  0.00000000E+00  0.00000000E+00
  0.00000000E+00  0.00000000E+00  0.00000000E+00  0.00000000E+00  0.00000000E+00
  0.00000000E+00 -2.49800181E-16 -4.78959436E-48  0.00000000E+00  0.00000000E+00
 -4.99600361E-16  1.76941795E-16  9.36750677E-17  0.00000000E+00 -5.81593601E-48
 -3.05311332E-16  7.77156117E-16  0.00000000E+00 -1.16318720E-47 -6.38378239E-16
  3.05311332E-16 -2.22044605E-16  0.00000000E+00  1.88162636E-48  9.71445147E-17
  2.05391260E-15  0.00000000E+00 -1.45398400E-47 -7.77156117E-16  5.10702591E-15
  0.00000000E+00  0.00000000E+00  0.00000000E+00  3.85185989E-34  0.00000000E+00
  0.00000000E+00 -2.77555756E-17  1.54074396E-33 -8.55284707E-50  0.00000000E+00
 -5.55111512E-17  0.00000000E+00  0.00000000E+00  3.85185989E-34  3.40005801E-16
  6.50016377E-48  0.00000000E+00  1.54074396E-33  4.57966998E-16  8.72390401E-48
  0.00000000E+00 -7.70371978E-34  6.93889390E-16 -4.25007252E-16 -5.82867088E-16
  0.00000000E+00 -2.05268330E-48 -1.11022302E-16  1.65839564E-15  0.00000000E+00
 -9.57918872E-48 -4.99600361E-16  5.13478149E-16  0.00000000E+00 -2.05268330E-48
 -1.38777878E-16 -1.11022302E-16 -5.89805982E-17 -1.92592994E-34 -2.08166817E-17
  2.08166817E-17 -5.27355937E-16  0.00000000E+00 -6.93889390E-17 -1.38777878E-17
  5.62050406E-16  0.00000000E+00  2.98372438E-16  6.93889390E-17  1.04083409E-16
  3.56485674E-16  5.89805982E-16  1.92592994E-34 -5.89805982E-16 -3.60822483E-16
 -1.93248195E-15  0.00000000E+00 -9.43689571E-16 -3.74700271E-16 -1.33226763E-15
  0.00000000E+00 -1.52655666E-16 -5.55111512E-16 -3.74700271E-16 -6.38378239E-16
 -9.58434720E-17  2.16840434E-18 -9.62964972E-35  3.98986399E-16 -7.63278329E-17
 -5.42968448E-16  9.62964972E-35  5.82867088E-16 -5.03069808E-17 -4.44089210E-16
  0.00000000E+00  4.89192020E-16 -1.28369537E-16  2.77555756E-16  2.77555756E-16
  2.94902991E-16 -1.11022302E-16 -5.89805982E-17  1.92592994E-34  2.08166817E-17
  2.08166817E-17 -5.27355937E-16  0.00000000E+00  6.93889390E-17 -1.38777878E-17
  5.62050406E-16  0.00000000E+00 -2.98372438E-16  6.93889390E-17  2.94902991E-17
  3.43475248E-16 -3.24393290E-16  1.04083409E-16  3.56485674E-16  5.89805982E-16
 -1.92592994E-34  5.89805982E-16 -3.60822483E-16 -1.93248195E-15  0.00000000E+00
  9.43689571E-16 -3.74700271E-16 -1.33226763E-15  0.00000000E+00  1.52655666E-16
 -5.55111512E-16  3.43475248E-16  1.13797860E-15 -7.63278329E-17 -3.74700271E-16
 -6.38378239E-16 -9.58434720E-17  2.16840434E-18  9.62964972E-35 -3.98986399E-16
 -7.63278329E-17 -5.42968448E-16 -9.62964972E-35 -5.82867088E-16 -5.03069808E-17
 -4.44089210E-16  0.00000000E+00 -4.89192020E-16 -1.28369537E-16 -3.24393290E-16
 -7.63278329E-17 -2.22044605E-16  2.77555756E-16  2.77555756E-16  2.94902991E-16
Mulliken Charges                           R   N=           3
 -7.41481190E-01  3.70740595E-01  3.70740595E-01
ONIOM Charges                              I   N=          16
           0           0           0           0           0           0
           0           0           0           0           0           0
           0           0           0           0
ONIOM Multiplicities                       I   N=          16
           1           0           0           0           0           0
           0           0           0           0           0           0
           0           0           0           0
Atom Layers                                I   N=           3
           1           1           1
Atom Modifiers                             I   N=           3
           0           0           0
Force Field                                I                0
Int Atom Modified Types                    I   N=           3
           0           0           0
Link Atoms                                 I   N=           3
           0           0           0
Atom Modified MM Charges                   R   N=           3
  0.00000000E+00  0.00000000E+00  0.00000000E+00
Link Distances                             R   N=          12
  0.00000000E+00  0.00000000E+00  0.00000000E+00  0.00000000E+00  0.00000000E+00
  0.00000000E+00  0.00000000E+00  0.00000000E+00  0.00000000E+00  0.00000000E+00
  0.00000000E+00  0.00000000E+00
Cartesian Gradient                         R   N=           9
  0.00000000E+00  0.00000000E+00  0.00000000E+00  0.00000000E+00  0.00000000E+00
  0.00000000E+00  0.00000000E+00  0.00000000E+00  0.00000000E+00
Dipole Moment                              R   N=           3
 -6.15791528E-17 -2.78097857E-17 -9.89336075E-01