Input file generated by gabedit...                                      
SP        UB3LYP                                                      6-311G              
Number of atoms                            I                3
Info1-9                                    I   N=           9
          13          12           0           0           0         111
           1          18        -502
Charge                                     I                1
Multiplicity                               I                2
Number of electrons                        I                9
Number of alpha electrons                  I                5
Number of beta electrons                   I                4
Number of basis functions                  I               19
Number of independent functions            I               19
Number of point charges in /Mol/           I                0
Number of translation vectors              I                0
Atomic numbers                             I   N=           3
           8           1           1
Nuclear charges                            R   N=           3
  8.00000000E+00  1.00000000E+00  1.00000000E+00
Current cartesian coordinates              R   N=           9
  0.00000000E+00  1.02866426E-32  2.19964121E-01  0.00000000E+00  1.41918432E+00
 -8.79856484E-01 -1.73799953E-16 -1.41918432E+00 -8.79856484E-01
Force Field                                I                0
Int Atom Types                             I   N=           3
           0           0           0
MM charges                                 R   N=           3
  7.90505033-323  4.94065646-324  4.94065646-324
Integer atomic weights                     I   N=           3
           0           0           0
Real atomic weights                        R   N=           3
  0.00000000E+00  0.00000000E+00  0.00000000E+00
Atom fragment info                         I   N=           3
           0           0           0
Atom residue num                           I   N=           3
           0           0           0
Nuclear spins                              I   N=           3
           0           0           0
Nuclear ZEff                               R   N=           3
  0.00000000E+00  0.00000000E+00  0.00000000E+00
Nuclear ZNuc                               R   N=           3
  0.00000000E+00  0.00000000E+00  0.00000000E+00
Nuclear QMom                               R   N=           3
  0.00000000E+00  0.00000000E+00  0.00000000E+00
Nuclear GFac                               R   N=           3
  0.00000000E+00  0.00000000E+00  0.00000000E+00
MicOpt                                     I   N=           3
          -1          -1          -1
Number of contracted shells                I               10
Number of primitive shells                 I               21
Pure/Cartesian d shells                    I                0
Pure/Cartesian f shells                    I                0
Highest angular momentum                   I                1
Largest degree of contraction              I                6
Shell types                                I   N=          10
           0          -1          -1          -1           0           0
           0           0           0           0
Number of primitives per shell             I   N=          10
           6           3           1           1           3           1
           1           3           1           1
Shell to atom map                          I   N=          10
           1           1           1           1           2           2
           2           3           3           3
Primitive exponents                        R   N=          21
  8.58850000E+03  1.29723000E+03  2.99296000E+02  8.73771000E+01  2.56789000E+01
  3.74004000E+00  4.21175000E+01  9.62837000E+00  2.85332000E+00  9.05661000E-01
  2.55611000E-01  3.38650000E+01  5.09479000E+00  1.15879000E+00  3.25840000E-01
  1.02741000E-01  3.38650000E+01  5.09479000E+00  1.15879000E+00  3.25840000E-01
  1.02741000E-01
Contraction coefficients                   R   N=          21
  1.89515008E-03  1.43859006E-02  7.07320031E-02  2.40001011E-01  5.94797026E-01
  2.80802012E-01  1.13889012E-01  9.20811101E-01 -3.27447036E-03  1.00000000E+00
  1.00000000E+00  2.54938145E-02  1.90373109E-01  8.52161486E-01  1.00000000E+00
  1.00000000E+00  2.54938145E-02  1.90373109E-01  8.52161486E-01  1.00000000E+00
  1.00000000E+00
P(S=P) Contraction coefficients            R   N=          21
  0.00000000E+00  0.00000000E+00  0.00000000E+00  0.00000000E+00  0.00000000E+00
  0.00000000E+00  3.65113974E-02  2.37152983E-01  8.19701941E-01  1.00000000E+00
  1.00000000E+00  0.00000000E+00  0.00000000E+00  0.00000000E+00  0.00000000E+00
  0.00000000E+00  0.00000000E+00  0.00000000E+00  0.00000000E+00  0.00000000E+00
  0.00000000E+00
Coordinates of each shell                  R   N=          30
 -6.77816779E-34  5.42253424E-33  2.19964121E-01 -6.77816779E-34  5.42253424E-33
  2.19964121E-01 -6.77816779E-34  5.42253424E-33  2.19964121E-01 -6.77816779E-34
  5.42253424E-33  2.19964121E-01  0.00000000E+00  1.41918432E+00 -8.79856484E-01
  0.00000000E+00  1.41918432E+00 -8.79856484E-01  0.00000000E+00  1.41918432E+00
 -8.79856484E-01 -1.73799953E-16 -1.41918432E+00 -8.79856484E-01 -1.73799953E-16
 -1.41918432E+00 -8.79856484E-01 -1.73799953E-16 -1.41918432E+00 -8.79856484E-01
Constraint Structure                       R   N=           9
 -6.77816779E-34  5.42253424E-33  2.19964121E-01  0.00000000E+00  1.41918432E+00
 -8.79856484E-01 -1.73799953E-16 -1.41918432E+00 -8.79856484E-01
Num ILSW                                   I              100
ILSW                                       I   N=         100
           1           0           0           0           2           0
           0           0           0           0         402          -1
           5           0           0           0           0           0
           0           0           0           0           0           0
           1           0           0           0           0           0
           0           0      100000           0          -1           0
           0           0           0           0           0           0
           0           0           0           1           0           0
           0 -2000000000           1           0           0           0
           0           0           4          41           0           0
           0           0           5           0           0           0
           0           0           0           3           0           1
           0           0           0           0           0           0
           0           0           0           0           0           0
           0           0           0           0           0           0
           0           0           0           0           0           0
           0           0           0           0
Num RLSW                                   I               41
RLSW                                       R   N=          41
  8.00000000E-01  7.20000000E-01  1.00000000E+00  8.10000000E-01  2.00000000E-01
  0.00000000E+00  0.00000000E+00  1.00000000E+00  0.00000000E+00  0.00000000E+00
  0.00000000E+00  0.00000000E+00  1.00000000E+00  0.00000000E+00  0.00000000E+00
  0.00000000E+00  0.00000000E+00  1.00000000E+00  0.00000000E+00  0.00000000E+00
  0.00000000E+00  0.00000000E+00  1.00000000E+00  0.00000000E+00  0.00000000E+00
  0.00000000E+00  0.00000000E+00  1.00000000E+00  0.00000000E+00  0.00000000E+00
  0.00000000E+00  0.00000000E+00  1.00000000E+00  0.00000000E+00  0.00000000E+00
  0.00000000E+00  0.00000000E+00  0.00000000E+00  1.00000000E+00  1.00000000E+00
  0.00000000E+00
MxBond                                     I                2
NBond                                      I   N=           3
           2           1           1
IBond                                      I   N=           6
           2           3           1           0           1           0
RBond                                      R   N=           6
  1.00000000E+00  1.00000000E+00  1.00000000E+00  0.00000000E+00  1.00000000E+00
  0.00000000E+00
Virial Ratio                               R      1.999007641041105E+00
SCF Energy                                 R     -7.595151399868364E+01
Total Energy                               R     -7.595151399868364E+01
S**2                                       R      7.518221921910304E-01
S**2 after annihilation                    R      7.500022139995393E-01
RMS Density                                R      8.526976063254159E-09
External E-field                           R   N=          35
  0.00000000E+00  0.00000000E+00  0.00000000E+00  0.00000000E+00  0.00000000E+00
  0.00000000E+00  0.00000000E+00  0.00000000E+00  0.00000000E+00  0.00000000E+00
  0.00000000E+00  0.00000000E+00  0.00000000E+00  0.00000000E+00  0.00000000E+00
  0.00000000E+00  0.00000000E+00  0.00000000E+00  0.00000000E+00  0.00000000E+00
  0.00000000E+00  0.00000000E+00  0.00000000E+00  0.00000000E+00  0.00000000E+00
  0.00000000E+00  0.00000000E+00  0.00000000E+00  0.00000000E+00  0.00000000E+00
  0.00000000E+00  0.00000000E+00  0.00000000E+00  0.00000000E+00  0.00000000E+00
IOpCl                                      I                1
IROHF                                      I                0
Alpha Orbital Energies                     R   N=          19
 -1.96938658E+01 -1.56737349E+00 -1.02684334E+00 -8.86420854E-01 -8.65675607E-01
 -2.99401807E-01 -2.13363155E-01  4.13671538E-02  6.32834402E-02  3.01199270E-01
  3.71537608E-01  4.95019058E-01  7.17056413E-01  1.73697949E+00  1.78396237E+00
  4.15094508E+00  4.33341764E+00  4.45347714E+00  4.91472717E+01
Beta Orbital Energies                      R   N=          19
 -1.96659974E+01 -1.49640264E+00 -1.00465066E+00 -8.31148035E-01 -6.23153949E-01
 -2.90244800E-01 -2.07276358E-01  4.14642903E-02  7.18042757E-02  3.81586339E-01
  3.85418067E-01  5.07794338E-01  7.55999235E-01  1.73203974E+00  1.77858131E+00
  4.27547580E+00  4.35840872E+00  4.47952531E+00  4.91756396E+01
Alpha MO coefficients                      R   N=         361
  5.50905167E-01  4.70130403E-01  0.00000000E+00  0.00000000E+00 -2.31723749E-03
  1.27956727E-02  0.00000000E+00  0.00000000E+00  4.31603271E-04 -6.22911852E-03
  0.00000000E+00  0.00000000E+00  8.61245516E-04 -1.02960697E-04  8.97135116E-04
  7.66407054E-04 -1.02960697E-04  8.97135116E-04  7.66407054E-04 -1.21348829E-01
 -1.96333839E-01  0.00000000E+00  0.00000000E+00 -6.63448118E-02  5.95020943E-01
  0.00000000E+00  0.00000000E+00 -1.26399675E-01  4.18127279E-01  0.00000000E+00
  0.00000000E+00 -7.68224840E-02  9.74049370E-02  1.23796011E-02 -1.00521393E-02
  9.74049370E-02  1.23796011E-02 -1.00521393E-02  0.00000000E+00  0.00000000E+00
  0.00000000E+00  2.67600515E-01  0.00000000E+00  0.00000000E+00  0.00000000E+00
  4.18616576E-01  0.00000000E+00  0.00000000E+00  0.00000000E+00  2.15342518E-01
  0.00000000E+00  1.58029049E-01  1.56444823E-01  1.64230533E-03 -1.58029049E-01
 -1.56444823E-01 -1.64230533E-03  0.00000000E+00  0.00000000E+00  3.34805586E-01
  0.00000000E+00  0.00000000E+00  0.00000000E+00  5.01945626E-01  0.00000000E+00
  0.00000000E+00  0.00000000E+00  3.78179069E-01  0.00000000E+00  0.00000000E+00
  0.00000000E+00  0.00000000E+00  0.00000000E+00  0.00000000E+00  0.00000000E+00
  0.00000000E+00 -4.68248663E-02 -7.67107690E-02  0.00000000E+00  0.00000000E+00
  2.89094009E-01  2.47264641E-01  0.00000000E+00  0.00000000E+00  4.24873957E-01
  2.37184595E-01  0.00000000E+00  0.00000000E+00  3.25634757E-01 -8.47571005E-02
 -8.07514444E-02 -1.30161194E-02 -8.47571005E-02 -8.07514444E-02 -1.30161194E-02
 -4.90820058E-02 -8.27185949E-02  0.00000000E+00  0.00000000E+00 -1.20996873E-01
  2.87547126E-01  0.00000000E+00  0.00000000E+00 -2.18243675E-01  8.23875528E-01
  0.00000000E+00  0.00000000E+00 -2.59124661E-01 -7.99316325E-02 -3.18442304E-01
 -5.89328134E-01 -7.99316325E-02 -3.18442304E-01 -5.89328134E-01  0.00000000E+00
  0.00000000E+00  0.00000000E+00 -2.00067226E-01  0.00000000E+00  0.00000000E+00
  0.00000000E+00 -3.11706291E-01  0.00000000E+00  0.00000000E+00  0.00000000E+00
 -5.91631002E-01  0.00000000E+00  9.38596140E-02  4.44742468E-01  9.75715869E-01
 -9.38596140E-02 -4.44742468E-01 -9.75715869E-01  0.00000000E+00  0.00000000E+00
  0.00000000E+00  8.34656196E-02  0.00000000E+00  0.00000000E+00  0.00000000E+00
  1.18076323E-01  0.00000000E+00  0.00000000E+00  0.00000000E+00  7.38891147E-01
  0.00000000E+00 -1.40549861E-01 -1.24602180E+00  1.31282022E+00  1.40549861E-01
  1.24602180E+00 -1.31282022E+00  2.14940219E-02  3.59578862E-02  0.00000000E+00
  0.00000000E+00  1.17658520E-01 -9.23509254E-02  0.00000000E+00  0.00000000E+00
  2.00066561E-01 -8.38505114E-01  0.00000000E+00  0.00000000E+00  7.10890904E-01
  1.38834702E-01  1.51049896E+00 -8.10112142E-01  1.38834702E-01  1.51049896E+00
 -8.10112142E-01  0.00000000E+00  0.00000000E+00 -2.57804290E-01  0.00000000E+00
  0.00000000E+00  0.00000000E+00 -7.35847435E-01  0.00000000E+00  0.00000000E+00
  0.00000000E+00  1.15945632E+00  0.00000000E+00  0.00000000E+00  0.00000000E+00
  0.00000000E+00  0.00000000E+00  0.00000000E+00  0.00000000E+00  0.00000000E+00
  2.38477207E-02  4.04432481E-02  0.00000000E+00  0.00000000E+00 -2.34878711E-01
 -1.44585276E-01  0.00000000E+00  0.00000000E+00 -7.30174261E-01 -5.29939545E-01
  0.00000000E+00  0.00000000E+00  1.52773534E+00  3.98871248E-02  5.31833774E-01
  2.90037832E-02  3.98871248E-02  5.31833774E-01  2.90037832E-02  0.00000000E+00
  0.00000000E+00  0.00000000E+00 -2.46961939E-01  0.00000000E+00  0.00000000E+00
  0.00000000E+00 -7.80519834E-01  0.00000000E+00  0.00000000E+00  0.00000000E+00
  1.84803383E+00  0.00000000E+00  1.39627010E-02 -3.45352875E-01 -8.77972415E-01
 -1.39627010E-02  3.45352875E-01  8.77972415E-01  1.16501044E-01  2.32889380E-01
  0.00000000E+00  0.00000000E+00  4.42707646E-02 -1.77927755E+00  0.00000000E+00
  0.00000000E+00  1.05364578E-01  3.02523399E+00  0.00000000E+00  0.00000000E+00
 -8.23696326E-01  1.22154881E-02 -7.72863659E-01 -3.75818717E-01  1.22154881E-02
 -7.72863659E-01 -3.75818717E-01 -6.55233030E-03 -2.99044256E-03  0.00000000E+00
  0.00000000E+00 -1.62545018E-01 -1.41280306E-01  0.00000000E+00  0.00000000E+00
  3.06384570E-02 -4.79427747E-01  0.00000000E+00  0.00000000E+00  3.93104518E-01
 -1.08214015E+00  1.68873335E+00 -5.49895237E-01 -1.08214015E+00  1.68873335E+00
 -5.49895237E-01  0.00000000E+00  0.00000000E+00  0.00000000E+00  1.75753410E-01
  0.00000000E+00  0.00000000E+00  0.00000000E+00 -1.04361991E-01  0.00000000E+00
  0.00000000E+00  0.00000000E+00 -2.68163996E-01  0.00000000E+00 -1.09549695E+00
  1.72807041E+00 -9.02868470E-01  1.09549695E+00 -1.72807041E+00  9.02868470E-01
  0.00000000E+00  0.00000000E+00 -1.25643735E+00  0.00000000E+00  0.00000000E+00
  0.00000000E+00  1.40655130E+00  0.00000000E+00  0.00000000E+00  0.00000000E+00
 -5.62542376E-01  0.00000000E+00  0.00000000E+00  0.00000000E+00  0.00000000E+00
  0.00000000E+00  0.00000000E+00  0.00000000E+00  0.00000000E+00  4.98536711E-03
  1.19745121E-02  0.00000000E+00  0.00000000E+00 -1.25785980E+00 -8.57125932E-02
  0.00000000E+00  0.00000000E+00  1.44852705E+00  3.67684382E-01  0.00000000E+00
  0.00000000E+00 -7.34735378E-01  2.45833077E-01 -3.90502246E-01  2.27868602E-02
  2.45833077E-01 -3.90502246E-01  2.27868602E-02  0.00000000E+00  0.00000000E+00
  0.00000000E+00 -1.26736416E+00  0.00000000E+00  0.00000000E+00  0.00000000E+00
  1.51931941E+00  0.00000000E+00  0.00000000E+00  0.00000000E+00 -8.66609748E-01
  0.00000000E+00 -2.77701401E-01  3.42836288E-01  1.78044825E-01  2.77701401E-01
 -3.42836288E-01 -1.78044825E-01 -2.24596289E+00  2.32996811E+00  0.00000000E+00
  0.00000000E+00 -4.56033925E-03 -2.48947381E-01  0.00000000E+00  0.00000000E+00
  1.46945135E-02  2.49772820E-01  0.00000000E+00  0.00000000E+00 -5.28530762E-02
  6.03227617E-03 -4.44223368E-02 -3.13493852E-02  6.03227617E-03 -4.44223368E-02
 -3.13493852E-02
Beta MO coefficients                       R   N=         361
  5.51668950E-01  4.69909982E-01  0.00000000E+00  0.00000000E+00 -2.31172025E-03
  1.11747699E-02  0.00000000E+00  0.00000000E+00  4.91560745E-04 -5.51820041E-03
  0.00000000E+00  0.00000000E+00  7.81561735E-04 -3.05563312E-05  8.49140204E-04
  6.42804314E-04 -3.05563312E-05  8.49140204E-04  6.42804314E-04 -1.17271259E-01
 -1.88837907E-01  0.00000000E+00  0.00000000E+00 -7.04441239E-02  5.65793188E-01
  0.00000000E+00  0.00000000E+00 -1.32357645E-01  4.01862139E-01  0.00000000E+00
  0.00000000E+00 -7.03808750E-02  1.08823986E-01  3.63465085E-02 -1.10674048E-02
  1.08823986E-01  3.63465085E-02 -1.10674048E-02  0.00000000E+00  0.00000000E+00
  0.00000000E+00  2.59410343E-01  0.00000000E+00  0.00000000E+00  0.00000000E+00
  4.03353604E-01  0.00000000E+00  0.00000000E+00  0.00000000E+00  2.11368738E-01
  0.00000000E+00  1.66168500E-01  1.69528190E-01  6.43749712E-03 -1.66168500E-01
 -1.69528190E-01 -6.43749712E-03 -4.97510110E-02 -8.11087820E-02  0.00000000E+00
  0.00000000E+00  2.82659236E-01  2.56826156E-01  0.00000000E+00  0.00000000E+00
  4.10095391E-01  2.57926139E-01  0.00000000E+00  0.00000000E+00  3.39153744E-01
 -8.39023783E-02 -7.78036365E-02 -1.57526047E-02 -8.39023783E-02 -7.78036365E-02
 -1.57526047E-02  0.00000000E+00  0.00000000E+00  3.03555695E-01  0.00000000E+00
  0.00000000E+00  0.00000000E+00  4.43670045E-01  0.00000000E+00  0.00000000E+00
  0.00000000E+00  4.75135641E-01  0.00000000E+00  0.00000000E+00  0.00000000E+00
  0.00000000E+00  0.00000000E+00  0.00000000E+00  0.00000000E+00  0.00000000E+00
 -4.96235531E-02 -8.28375489E-02  0.00000000E+00  0.00000000E+00 -1.20415450E-01
  2.75202324E-01  0.00000000E+00  0.00000000E+00 -2.17671776E-01  8.61466672E-01
  0.00000000E+00  0.00000000E+00 -2.67385883E-01 -7.38932119E-02 -3.11636678E-01
 -6.03957928E-01 -7.38932119E-02 -3.11636678E-01 -6.03957928E-01  0.00000000E+00
  0.00000000E+00  0.00000000E+00 -2.01636300E-01  0.00000000E+00  0.00000000E+00
  0.00000000E+00 -3.12504358E-01  0.00000000E+00  0.00000000E+00  0.00000000E+00
 -6.11311956E-01  0.00000000E+00  8.76846881E-02  4.37270909E-01  9.94199573E-01
 -8.76846881E-02 -4.37270909E-01 -9.94199573E-01  0.00000000E+00  0.00000000E+00
  0.00000000E+00  8.69500019E-02  0.00000000E+00  0.00000000E+00  0.00000000E+00
  1.23443667E-01  0.00000000E+00  0.00000000E+00  0.00000000E+00  7.49315690E-01
  0.00000000E+00 -1.40304970E-01 -1.24723784E+00  1.30288245E+00  1.40304970E-01
  1.24723784E+00 -1.30288245E+00  2.44337801E-02  4.08039323E-02  0.00000000E+00
  0.00000000E+00  1.19944377E-01 -1.11340517E-01  0.00000000E+00  0.00000000E+00
  2.05458234E-01 -8.47760961E-01  0.00000000E+00  0.00000000E+00  7.17624864E-01
  1.37598158E-01  1.51349383E+00 -8.03564872E-01  1.37598158E-01  1.51349383E+00
 -8.03564872E-01  0.00000000E+00  0.00000000E+00 -2.70500037E-01  0.00000000E+00
  0.00000000E+00  0.00000000E+00 -7.94453234E-01  0.00000000E+00  0.00000000E+00
  0.00000000E+00  1.12876072E+00  0.00000000E+00  0.00000000E+00  0.00000000E+00
  0.00000000E+00  0.00000000E+00  0.00000000E+00  0.00000000E+00  0.00000000E+00
  2.41199776E-02  4.05538066E-02  0.00000000E+00  0.00000000E+00 -2.36855618E-01
 -1.38758530E-01  0.00000000E+00  0.00000000E+00 -7.39769251E-01 -5.49004056E-01
  0.00000000E+00  0.00000000E+00  1.52677404E+00  4.07670494E-02  5.31583251E-01
  3.27130870E-02  4.07670494E-02  5.31583251E-01  3.27130870E-02  0.00000000E+00
  0.00000000E+00  0.00000000E+00 -2.48876072E-01  0.00000000E+00  0.00000000E+00
  0.00000000E+00 -7.91231094E-01  0.00000000E+00  0.00000000E+00  0.00000000E+00
  1.83921905E+00  0.00000000E+00  1.30138664E-02 -3.37617877E-01 -8.71331164E-01
 -1.30138664E-02  3.37617877E-01  8.71331164E-01  1.18121580E-01  2.35527315E-01
  0.00000000E+00  0.00000000E+00  4.35023904E-02 -1.78876387E+00  0.00000000E+00
  0.00000000E+00  1.02879968E-01  3.01029157E+00  0.00000000E+00  0.00000000E+00
 -8.14729886E-01  1.37982015E-02 -7.72296789E-01 -3.64646037E-01  1.37982015E-02
 -7.72296789E-01 -3.64646037E-01 -6.89940140E-03 -3.42900413E-03  0.00000000E+00
  0.00000000E+00 -1.62393720E-01 -1.40941574E-01  0.00000000E+00  0.00000000E+00
  2.64755054E-02 -4.74045121E-01  0.00000000E+00  0.00000000E+00  3.93044597E-01
 -1.08194727E+00  1.68795162E+00 -5.50861638E-01 -1.08194727E+00  1.68795162E+00
 -5.50861638E-01  0.00000000E+00  0.00000000E+00  0.00000000E+00  1.76152195E-01
  0.00000000E+00  0.00000000E+00  0.00000000E+00 -9.99466123E-02  0.00000000E+00
  0.00000000E+00  0.00000000E+00 -2.70192462E-01  0.00000000E+00 -1.09514648E+00
  1.72971850E+00 -9.03655617E-01  1.09514648E+00 -1.72971850E+00  9.03655617E-01
  0.00000000E+00  0.00000000E+00 -1.26169580E+00  0.00000000E+00  0.00000000E+00
  0.00000000E+00  1.39420528E+00  0.00000000E+00  0.00000000E+00  0.00000000E+00
 -5.51323534E-01  0.00000000E+00  0.00000000E+00  0.00000000E+00  0.00000000E+00
  0.00000000E+00  0.00000000E+00  0.00000000E+00  0.00000000E+00  5.02010369E-03
  1.20152820E-02  0.00000000E+00  0.00000000E+00 -1.25861469E+00 -8.59117698E-02
  0.00000000E+00  0.00000000E+00  1.44697687E+00  3.66140419E-01  0.00000000E+00
  0.00000000E+00 -7.31781118E-01  2.44538050E-01 -3.88337257E-01  2.25256243E-02
  2.44538050E-01 -3.88337257E-01  2.25256243E-02  0.00000000E+00  0.00000000E+00
  0.00000000E+00 -1.26815405E+00  0.00000000E+00  0.00000000E+00  0.00000000E+00
  1.51761305E+00  0.00000000E+00  0.00000000E+00  0.00000000E+00 -8.63092951E-01
  0.00000000E+00 -2.76518429E-01  3.41195036E-01  1.77312389E-01  2.76518429E-01
 -3.41195036E-01 -1.77312389E-01 -2.24579848E+00  2.33013125E+00  0.00000000E+00
  0.00000000E+00 -4.56007815E-03 -2.49129677E-01  0.00000000E+00  0.00000000E+00
  1.47071937E-02  2.49763843E-01  0.00000000E+00  0.00000000E+00 -5.28402048E-02
  6.05056737E-03 -4.44158165E-02 -3.13457381E-02  6.05056737E-03 -4.44158165E-02
 -3.13457381E-02
Total SCF Density                          R   N=         190
  6.40980951E-01  5.71829370E-01  5.28507894E-01  0.00000000E+00  0.00000000E+00
  1.12094780E-01  0.00000000E+00  0.00000000E+00 -1.15555797E-33  1.38903762E-01
 -1.38393172E-02 -2.09502218E-02  0.00000000E+00  3.24034934E-33  1.72846312E-01
 -1.49697893E-01 -2.52197894E-01  0.00000000E+00  1.21270895E-33  6.46881699E-02
  8.01559936E-01  0.00000000E+00  0.00000000E+00  1.68054199E-01 -1.15555797E-33
  5.17856983E-34  0.00000000E+00  2.51949411E-01  0.00000000E+00  0.00000000E+00
 -1.15555797E-33  2.16656109E-01  4.06165148E-33  0.00000000E+00 -2.31111593E-33
  3.37933968E-01 -8.92817510E-03 -1.56101725E-02  0.00000000E+00  4.80773138E-33
  2.56453410E-01  6.02930374E-02  0.00000000E+00  7.16495166E-33  3.82191961E-01
 -1.28280231E-01 -2.02615582E-01  0.00000000E+00  1.60196166E-33  8.54516399E-02
  6.00913521E-01  0.00000000E+00  1.88410695E-33  1.00501799E-01  4.59175278E-01
  0.00000000E+00  0.00000000E+00  1.26616465E-01 -7.70371978E-34  3.90167106E-34
  0.00000000E+00  1.89825330E-01 -1.54074396E-33  5.84944459E-34  0.00000000E+00
  1.43019408E-01  0.00000000E+00  0.00000000E+00 -7.70371978E-34  1.12457006E-01
  2.10823118E-33  0.00000000E+00 -1.54074396E-33  1.75402290E-01  3.28826625E-33
  0.00000000E+00 -5.77778983E-34  9.10491433E-02 -1.36394454E-02 -2.33424480E-02
  0.00000000E+00  3.75042839E-33  2.00054885E-01  8.21092610E-02  0.00000000E+00
  5.55784082E-33  2.96465655E-01  1.04297501E-01  0.00000000E+00  4.34779932E-33
  2.31919771E-01 -1.65125114E-02 -2.64297405E-02 -5.77778983E-34  8.53944825E-02
 -6.23465654E-02  7.70224290E-02 -7.70371978E-34  1.33178243E-01 -9.71347616E-02
  4.27170158E-02 -5.77778983E-34  6.91531994E-02 -7.11977926E-02  8.81389190E-02
  2.85001492E-03  4.03172035E-03 -3.85185989E-34  8.58420813E-02 -4.87224373E-02
 -1.19972886E-02 -7.70371978E-34  1.33870203E-01 -7.25908097E-02 -1.94483297E-02
 -3.85185989E-34  6.95221816E-02 -5.61905660E-02  7.14263279E-02  6.72648406E-02
  4.68772267E-03  7.00204318E-03 -1.50463277E-35  2.10943509E-03 -6.77222237E-03
 -1.94902127E-02 -3.00926554E-35  3.28408390E-03 -9.25419122E-03 -1.58091973E-02
 -9.02779661E-36  1.71434381E-03 -8.02872935E-03  1.57050509E-03  3.09947818E-03
  6.86235985E-04 -1.65125114E-02 -2.64297405E-02  5.77778983E-34 -8.53944825E-02
 -6.23465654E-02  7.70224290E-02  7.70371978E-34 -1.33178243E-01 -9.71347616E-02
  4.27170158E-02  5.77778983E-34 -6.91531994E-02 -7.11977926E-02 -1.70313824E-02
 -3.43598153E-02 -1.08797729E-03  8.81389190E-02  2.85001492E-03  4.03172035E-03
  3.85185989E-34 -8.58420813E-02 -4.87224373E-02 -1.19972886E-02  7.70371978E-34
 -1.33870203E-01 -7.25908097E-02 -1.94483297E-02  3.85185989E-34 -6.95221816E-02
 -5.61905660E-02 -3.43598153E-02 -3.91647391E-02  4.02943379E-04  7.14263279E-02
  6.72648406E-02  4.68772267E-03  7.00204318E-03  1.50463277E-35 -2.10943509E-03
 -6.77222237E-03 -1.94902127E-02  3.00926554E-35 -3.28408390E-03 -9.25419122E-03
 -1.58091973E-02  9.02779661E-36 -1.71434381E-03 -8.02872935E-03 -1.08797729E-03
  4.02943379E-04  5.97958913E-04  1.57050509E-03  3.09947818E-03  6.86235985E-04
Spin SCF Density                           R   N=         190
 -1.51732797E-04  9.98871306E-04  2.40033291E-03  0.00000000E+00  0.00000000E+00
  1.12094780E-01  0.00000000E+00  0.00000000E+00 -3.85185989E-34  4.31630951E-03
  3.14314789E-04  4.69629956E-04  0.00000000E+00  5.84603911E-35  3.11838692E-03
 -3.77015939E-03 -7.35204941E-03  0.00000000E+00 -1.37813614E-35 -7.35123666E-04
  2.91469731E-02  0.00000000E+00  0.00000000E+00  1.68054199E-01  3.85185989E-34
  5.17856983E-34  0.00000000E+00  2.51949411E-01  0.00000000E+00  0.00000000E+00
  3.85185989E-34  7.38791452E-03  1.38501213E-34  0.00000000E+00 -7.70371978E-34
  1.25457079E-02  2.91292706E-04  4.64243047E-04  0.00000000E+00  1.11986050E-34
  5.97354597E-03 -5.90287131E-04  0.00000000E+00  2.02428695E-34  1.07979263E-02
 -2.27386120E-03 -3.81570658E-03  0.00000000E+00 -7.06130292E-35 -3.76663143E-03
  1.38107709E-02  0.00000000E+00 -8.74053455E-35 -4.66236508E-03  3.07623316E-03
  0.00000000E+00  0.00000000E+00  1.26616465E-01  0.00000000E+00  3.90167106E-34
  0.00000000E+00  1.89825330E-01  0.00000000E+00  5.84944459E-34  0.00000000E+00
  1.43019408E-01  0.00000000E+00  0.00000000E+00  0.00000000E+00  2.79453189E-03
  5.23890818E-35  0.00000000E+00  0.00000000E+00  4.88960535E-03  9.16654183E-35
  0.00000000E+00 -1.92592994E-34  1.69565670E-03  2.73740361E-03  4.35856455E-03
  0.00000000E+00 -2.97555305E-35 -1.58721581E-03 -1.24732719E-02  0.00000000E+00
 -6.31364512E-36 -3.36781673E-04 -1.40802867E-02  0.00000000E+00 -1.50705417E-34
 -8.03890964E-03  6.96597907E-04  1.08872493E-03 -1.92592994E-34 -8.17172819E-04
  4.16878312E-04 -3.02397696E-03  0.00000000E+00 -8.71084119E-04  4.88598558E-04
 -1.46656777E-03 -1.92592994E-34 -1.09245288E-03  1.03212124E-03 -4.84956163E-03
  2.69630881E-03  4.33976223E-03  0.00000000E+00 -2.11265057E-03  3.86117446E-04
 -1.31814625E-02  0.00000000E+00 -2.88941002E-03  8.43657476E-04 -8.51634651E-03
  0.00000000E+00 -2.14373731E-03  1.69909398E-03 -5.88067433E-03 -4.96516477E-03
 -1.84700694E-04 -3.37317423E-04  9.02779661E-36 -1.23047159E-03  5.76720783E-04
  1.11050715E-03  1.80555932E-35 -1.90909143E-03  7.35606759E-04  1.21905588E-03
  3.00926554E-36 -1.00702748E-03  1.09750834E-03 -8.03437920E-04 -7.30984770E-04
 -1.38737155E-04  6.96597907E-04  1.08872493E-03  1.92592994E-34  8.17172819E-04
  4.16878312E-04 -3.02397696E-03  0.00000000E+00  8.71084119E-04  4.88598558E-04
 -1.46656777E-03  1.92592994E-34  1.09245288E-03  1.03212124E-03  4.28018764E-04
  1.01416247E-03  8.16916665E-04 -4.84956163E-03  2.69630881E-03  4.33976223E-03
  0.00000000E+00  2.11265057E-03  3.86117446E-04 -1.31814625E-02  0.00000000E+00
  2.88941002E-03  8.43657476E-04 -8.51634651E-03  0.00000000E+00  2.14373731E-03
  1.69909398E-03  1.01416247E-03  3.56448394E-03  9.37829363E-04 -5.88067433E-03
 -4.96516477E-03 -1.84700694E-04 -3.37317423E-04 -9.02779661E-36  1.23047159E-03
  5.76720783E-04  1.11050715E-03 -1.80555932E-35  1.90909143E-03  7.35606759E-04
  1.21905588E-03 -3.00926554E-36  1.00702748E-03  1.09750834E-03  8.16916665E-04
  9.37829363E-04 -6.12487503E-05 -8.03437920E-04 -7.30984770E-04 -1.38737155E-04
Mulliken Charges                           R   N=           3
 -5.22152417E-02  5.26107621E-01  5.26107621E-01
ONIOM Charges                              I   N=          16
           1           0           0           0           0           0
           0           0           0           0           0           0
           0           0           0           0
ONIOM Multiplicities                       I   N=          16
           2           0           0           0           0           0
           0           0           0           0           0           0
           0           0           0           0
Atom Layers                                I   N=           3
           1           1           1
Atom Modifiers                             I   N=           3
           0           0           0
Force Field                                I                0
Int Atom Modified Types                    I   N=           3
           0           0           0
Link Atoms                                 I   N=           3
           0           0           0
Atom Modified MM Charges                   R   N=           3
  0.00000000E+00  0.00000000E+00  0.00000000E+00
Link Distances                             R   N=          12
  0.00000000E+00  0.00000000E+00  0.00000000E+00  0.00000000E+00  0.00000000E+00
  0.00000000E+00  0.00000000E+00  0.00000000E+00  0.00000000E+00  0.00000000E+00
  0.00000000E+00  0.00000000E+00
Cartesian Gradient                         R   N=           9
  0.00000000E+00  0.00000000E+00  0.00000000E+00  0.00000000E+00  0.00000000E+00
  0.00000000E+00  0.00000000E+00  0.00000000E+00  0.00000000E+00
Dipole Moment                              R   N=           3
 -8.60723326E-17 -5.42101086E-20 -1.04707365E+00