[Molden Format]
made by pyscf v[2.11.0]
[Atoms] (AU)
C   1   6     0.00000000000000     0.00000000000000    -1.21601000000000
O   2   8     0.00000000000000     0.00000000000000     0.91200800000000
[GTO]
1 0
 s    3 1.00
             71.616837    0.15432897000916
             13.045096    0.53532814003178
             3.5305122     0.4446345400264
 s    3 1.00
             2.9412494  -0.099967230075964
             0.6834831    0.39951283030359
             0.2222899    0.70011547053201
 p    3 1.00
             2.9412494    0.15591627210511
             0.6834831    0.60768372820466
             0.2222899    0.39195739529202

2 0
 s    3 1.00
             130.70932    0.15432896872316
             23.808861    0.53532813557095
             6.4436083    0.44463453632131
 s    3 1.00
             5.0331513  -0.099967228656673
             1.1695961    0.39951282463148
              0.380389    0.70011546059208
 p    3 1.00
             5.0331513    0.15591626847816
             1.1695961    0.60768371406861
              0.380389    0.39195738617424

[5d]
[7f]
[9g]

[MO]
 Sym= A
 Ene=    -20.42531609
 Spin= Alpha
 Occup=    2.00000
   1    0.00039312500993632
   2    -0.0087579080522716
   3    1.4174935879954e-18
   4    -3.1461253692115e-16
   5    -0.0074069935439841
   6      0.99414543330437
   7     0.027835920002181
   8    -1.1884050143071e-18
   9    -3.6317261259525e-18
  10    -0.0068709828989209
 Sym= A
 Ene=     -11.0935638
 Spin= Alpha
 Occup=    2.00000
   1      0.99359984050405
   2     0.026334439144916
   3    9.4698940673067e-19
   4    -1.2397786881607e-17
   5    0.0070328076865448
   6    -0.00022518113922574
   7    -0.0069450442103256
   8    -1.171891704701e-19
   9    1.6044645382286e-18
  10    0.00094813566897132
 Sym= A
 Ene=    -1.461766283
 Spin= Alpha
 Occup=    2.00000
   1     -0.12689029308072
   2      0.23985590005562
   3    1.8316661985003e-17
   4    3.3229082923187e-16
   5      0.16705694142128
   6     -0.22242057230508
   7      0.76587757599401
   8    1.9231568155764e-17
   9    1.7864067300337e-16
  10     -0.21889475518604
 Sym= A
 Ene=   -0.6997799833
 Spin= Alpha
 Occup=    2.00000
   1      0.16560723287303
   2     -0.53617352332024
   3    1.3974225340893e-16
   4    1.6691301567311e-15
   5    -0.068214372431425
   6     -0.13202939510299
   7      0.64622105465751
   8    1.8802703608786e-16
   9    2.3742264284424e-15
  10      0.62930088879847
 Sym= A
 Ene=   -0.5524783451
 Spin= Alpha
 Occup=    2.00000
   1    -7.0602990809998e-17
   2    -3.2262963010818e-16
   3    -0.024037422535886
   4      0.44490177093526
   5    1.2029619094175e-15
   6    4.2988862638707e-16
   7    -2.2340611000965e-15
   8    -0.042648931305243
   9      0.78937685760075
  10    -3.1738166891829e-15
 Sym= A
 Ene=   -0.5524783451
 Spin= Alpha
 Occup=    2.00000
   1    1.0032813474519e-16
   2    -4.8232354758675e-16
   3      0.44490177093525
   4     0.024037422535886
   5    6.0487317449182e-16
   6    9.1992963719912e-17
   7    -4.6482641327355e-16
   8      0.78937685760075
   9     0.042648931305244
  10    -5.9668968289179e-16
 Sym= A
 Ene=   -0.4466157136
 Spin= Alpha
 Occup=    2.00000
   1     -0.16735728546216
   2      0.76249222683779
   3    1.9061509522376e-16
   4    1.4948281532097e-15
   5     -0.57256927167514
   6    0.0014000415281455
   7     0.036813680327158
   8    8.2098365077176e-16
   9    1.5901595760113e-15
  10      0.43278648004178
 Sym= A
 Ene=    0.3143072798
 Spin= Alpha
 Occup=    0.00000
   1    5.9382545487572e-17
   2    -2.3698990123036e-16
   3     -0.11401304784192
   4      0.92493673155045
   5    3.1952399737273e-16
   6    1.5622674503323e-16
   7    -4.2361453410783e-16
   8     0.081343350843551
   9     -0.65990212950812
  10    -4.1567286428012e-16
 Sym= A
 Ene=    0.3143072798
 Spin= Alpha
 Occup=    0.00000
   1    -2.5455374516717e-17
   2    1.1981664537558e-16
   3      0.92493673155045
   4      0.11401304784192
   5    -8.9692204240371e-17
   6    2.1402453183863e-17
   7    -9.7922812848412e-17
   8     -0.65990212950812
   9    -0.081343350843551
  10    6.7011577327024e-18
 Sym= A
 Ene=     1.043893409
 Spin= Alpha
 Occup=    0.00000
   1     -0.12184277702898
   2      0.97821094073271
   3    -9.5202048328416e-17
   4    1.7749006156591e-17
   5       1.2318152546608
   6      0.12849387474658
   7      -1.0907351657911
   8    -1.6480558356143e-17
   9    1.6415060946854e-16
  10      0.97052912965368
