Input file generated by gabedit...                                      
SP        UB3LYP                                                      6-311G              
Number of atoms                            I                3
Info1-9                                    I   N=           9
          13          12           0           0           0         111
           1          18        -502
Full Title                                 C   N=           3
Input file generated by gabedit...  
Route                                      C   N=           8
#P B3LYP/6-311G IOp(99/18=-1) # Gfinput IOP(6/7=3) Pop=npa D
ensity Test # Units(Ang,Deg)        
Charge                                     I               -1
Multiplicity                               I                2
Number of electrons                        I               11
Number of alpha electrons                  I                6
Number of beta electrons                   I                5
Number of basis functions                  I               19
Number of independent functions            I               19
Number of point charges in /Mol/           I                0
Number of translation vectors              I                0
Atomic numbers                             I   N=           3
           8           1           1
Nuclear charges                            R   N=           3
  8.00000000E+00  1.00000000E+00  1.00000000E+00
Current cartesian coordinates              R   N=           9
  0.00000000E+00  1.02866426E-32  2.19964121E-01  0.00000000E+00  1.41918432E+00
 -8.79856484E-01 -1.73799953E-16 -1.41918432E+00 -8.79856484E-01
Number of symbols in /Mol/                 I                0
Int Atom Types                             I   N=           3
           0           0           0
Force Field                                I                0
Atom Types                                 C   N=           3
                                    
MM charges                                 R   N=           3
  0.00000000E+00  0.00000000E+00  0.00000000E+00
Integer atomic weights                     I   N=           3
          16           1           1
Real atomic weights                        R   N=           3
  1.59949146E+01  1.00782504E+00  1.00782504E+00
Atom fragment info                         I   N=           3
           0           0           0
Atom residue num                           I   N=           3
           0           0           0
Nuclear spins                              I   N=           3
           0           1           1
Nuclear ZEff                               R   N=           3
 -5.60000000E+00 -1.00000000E+00 -1.00000000E+00
Nuclear ZNuc                               R   N=           3
  8.00000000E+00  1.00000000E+00  1.00000000E+00
Nuclear QMom                               R   N=           3
  0.00000000E+00  0.00000000E+00  0.00000000E+00
Nuclear GFac                               R   N=           3
  0.00000000E+00  2.79284600E+00  2.79284600E+00
MicOpt                                     I   N=           3
          -1          -1          -1
Number of residues                         I                0
Number of secondary structures             I                0
SymInf integers                            I   N=          26
           2           4           1           1           1          -1
          -1           1          -1           1           1           1
          -1           1           0           0           0           0
           0           0           0           0           0           0
           0           0
RotTr to input orientation                 R   N=          12
 -3.06161700E-16  6.12323400E-17 -1.00000000E+00  1.00000000E+00 -1.22464680E-16
 -3.06161700E-16 -1.22464680E-16 -1.00000000E+00 -6.12323400E-17  0.00000000E+00
 -5.13249615E-01  0.00000000E+00
Number of contracted shells                I               10
Number of primitive shells                 I               21
Pure/Cartesian d shells                    I                0
Pure/Cartesian f shells                    I                0
Highest angular momentum                   I                1
Largest degree of contraction              I                6
Shell types                                I   N=          10
           0          -1          -1          -1           0           0
           0           0           0           0
Number of primitives per shell             I   N=          10
           6           3           1           1           3           1
           1           3           1           1
Shell to atom map                          I   N=          10
           1           1           1           1           2           2
           2           3           3           3
Primitive exponents                        R   N=          21
  8.58850000E+03  1.29723000E+03  2.99296000E+02  8.73771000E+01  2.56789000E+01
  3.74004000E+00  4.21175000E+01  9.62837000E+00  2.85332000E+00  9.05661000E-01
  2.55611000E-01  3.38650000E+01  5.09479000E+00  1.15879000E+00  3.25840000E-01
  1.02741000E-01  3.38650000E+01  5.09479000E+00  1.15879000E+00  3.25840000E-01
  1.02741000E-01
Contraction coefficients                   R   N=          21
  1.89515008E-03  1.43859006E-02  7.07320031E-02  2.40001011E-01  5.94797026E-01
  2.80802012E-01  1.13889012E-01  9.20811101E-01 -3.27447036E-03  1.00000000E+00
  1.00000000E+00  2.54938145E-02  1.90373109E-01  8.52161486E-01  1.00000000E+00
  1.00000000E+00  2.54938145E-02  1.90373109E-01  8.52161486E-01  1.00000000E+00
  1.00000000E+00
P(S=P) Contraction coefficients            R   N=          21
  0.00000000E+00  0.00000000E+00  0.00000000E+00  0.00000000E+00  0.00000000E+00
  0.00000000E+00  3.65113974E-02  2.37152983E-01  8.19701941E-01  1.00000000E+00
  1.00000000E+00  0.00000000E+00  0.00000000E+00  0.00000000E+00  0.00000000E+00
  0.00000000E+00  0.00000000E+00  0.00000000E+00  0.00000000E+00  0.00000000E+00
  0.00000000E+00
Coordinates of each shell                  R   N=          30
 -6.77816779E-34  5.42253424E-33  2.19964121E-01 -6.77816779E-34  5.42253424E-33
  2.19964121E-01 -6.77816779E-34  5.42253424E-33  2.19964121E-01 -6.77816779E-34
  5.42253424E-33  2.19964121E-01  0.00000000E+00  1.41918432E+00 -8.79856484E-01
  0.00000000E+00  1.41918432E+00 -8.79856484E-01  0.00000000E+00  1.41918432E+00
 -8.79856484E-01 -1.73799953E-16 -1.41918432E+00 -8.79856484E-01 -1.73799953E-16
 -1.41918432E+00 -8.79856484E-01 -1.73799953E-16 -1.41918432E+00 -8.79856484E-01
Num ILSW                                   I              100
ILSW                                       I   N=         100
           1           0           0           0           2           0
           0           0           0           0         402          -1
           5           0           0           0           0           0
           0           0           0           0           0           0
           1           0           0           0           0           0
           0           0      100000           0          -1           0
           0           0           0           0           0           0
           0           0           0           1           0           0
           0 -2000000000           1           0           0           0
           0           0           4          52           0           0
           0           0           5           0           0           0
           0           0           0           3           0           1
           0           0           0           0           0           0
           0           0           0           0           0           0
           0           0           0           0           0           0
           0           0           0           0           0           0
           0           0           0           0
Num RLSW                                   I               52
RLSW                                       R   N=          52
  8.00000000E-01  7.20000000E-01  1.00000000E+00  8.10000000E-01  2.00000000E-01
  0.00000000E+00  0.00000000E+00  1.00000000E+00  0.00000000E+00  0.00000000E+00
  0.00000000E+00  0.00000000E+00  1.00000000E+00  0.00000000E+00  0.00000000E+00
  0.00000000E+00  0.00000000E+00  1.00000000E+00  0.00000000E+00  0.00000000E+00
  0.00000000E+00  0.00000000E+00  1.00000000E+00  0.00000000E+00  0.00000000E+00
  0.00000000E+00  0.00000000E+00  1.00000000E+00  0.00000000E+00  0.00000000E+00
  0.00000000E+00  0.00000000E+00  1.00000000E+00  0.00000000E+00  0.00000000E+00
  0.00000000E+00  0.00000000E+00  0.00000000E+00  1.00000000E+00  1.00000000E+00
  0.00000000E+00  1.00000000E+00  0.00000000E+00  0.00000000E+00  0.00000000E+00
  0.00000000E+00  0.00000000E+00  0.00000000E+00  0.00000000E+00  0.00000000E+00
  0.00000000E+00  0.00000000E+00
MxBond                                     I                2
NBond                                      I   N=           3
           2           1           1
IBond                                      I   N=           6
           2           3           1           0           1           0
RBond                                      R   N=           6
  1.00000000E+00  1.00000000E+00  1.00000000E+00  0.00000000E+00  1.00000000E+00
  0.00000000E+00
Virial Ratio                               R      1.994433361963445E+00
SCF Energy                                 R     -7.630550974674723E+01
Total Energy                               R     -7.630550974674723E+01
S**2                                       R      7.505687143348423E-01
S**2 after annihilation                    R      7.500001462638571E-01
RMS Density                                R      4.293552875781713E-09
Job Status                                 I                1
Nuclear derivative order                   I                0
External E-field                           R   N=          35
  0.00000000E+00  0.00000000E+00  0.00000000E+00  0.00000000E+00  0.00000000E+00
  0.00000000E+00  0.00000000E+00  0.00000000E+00  0.00000000E+00  0.00000000E+00
  0.00000000E+00  0.00000000E+00  0.00000000E+00  0.00000000E+00  0.00000000E+00
  0.00000000E+00  0.00000000E+00  0.00000000E+00  0.00000000E+00  0.00000000E+00
  0.00000000E+00  0.00000000E+00  0.00000000E+00  0.00000000E+00  0.00000000E+00
  0.00000000E+00  0.00000000E+00  0.00000000E+00  0.00000000E+00  0.00000000E+00
  0.00000000E+00  0.00000000E+00  0.00000000E+00  0.00000000E+00  0.00000000E+00
IOpCl                                      I                1
IROHF                                      I                0
Alpha Orbital Energies                     R   N=          19
 -1.87961529E+01 -7.24546234E-01 -2.39240273E-01 -8.43762345E-02 -9.39523843E-03
  1.99282992E-01  3.09642937E-01  6.43427282E-01  6.81907088E-01  1.03121849E+00
  1.04142412E+00  1.15520129E+00  1.44155106E+00  2.42524328E+00  2.46001360E+00
  5.04374314E+00  5.15444950E+00  5.27786060E+00  5.00407507E+01
Beta Orbital Energies                      R   N=          19
 -1.87905951E+01 -7.08915413E-01 -2.31646146E-01 -7.57024589E-02 -3.00141166E-03
  2.78480016E-01  3.42444946E-01  6.55586266E-01  7.04013105E-01  1.04204309E+00
  1.05366120E+00  1.16555821E+00  1.45628027E+00  2.43451524E+00  2.46993526E+00
  5.04864661E+00  5.16634607E+00  5.28097534E+00  5.00470480E+01
Alpha MO coefficients                      R   N=         361
  5.51255771E-01  4.69934174E-01  0.00000000E+00  0.00000000E+00 -1.59927971E-03
  1.23293775E-02  0.00000000E+00  0.00000000E+00  1.41306549E-04 -6.04435830E-03
  0.00000000E+00  0.00000000E+00  9.69282440E-04 -1.11478985E-04  9.20955224E-04
  7.36831069E-04 -1.11478985E-04  9.20955224E-04  7.36831069E-04 -1.15553344E-01
 -1.85780510E-01  0.00000000E+00  0.00000000E+00 -5.97031071E-02  5.41961874E-01
  0.00000000E+00  0.00000000E+00 -1.10817248E-01  4.06418642E-01  0.00000000E+00
  0.00000000E+00 -5.22938718E-02  1.03774555E-01  4.31803665E-02  8.46951086E-03
  1.03774555E-01  4.31803665E-02  8.46951086E-03  0.00000000E+00  0.00000000E+00
  0.00000000E+00  2.32517219E-01  0.00000000E+00  0.00000000E+00  0.00000000E+00
  3.52163935E-01  0.00000000E+00  0.00000000E+00  0.00000000E+00  2.16437331E-01
  0.00000000E+00  1.60067259E-01  1.73023233E-01  1.36163732E-01 -1.60067259E-01
 -1.73023233E-01 -1.36163732E-01 -4.51472739E-02 -7.25667227E-02  0.00000000E+00
  0.00000000E+00  2.60470254E-01  2.04966295E-01  0.00000000E+00  0.00000000E+00
  3.55001667E-01  3.46710938E-01  0.00000000E+00  0.00000000E+00  3.90236099E-01
 -8.64670671E-02 -9.99126891E-02 -5.38347067E-02 -8.64670671E-02 -9.99126891E-02
 -5.38347067E-02  0.00000000E+00  0.00000000E+00  3.01291240E-01  0.00000000E+00
  0.00000000E+00  0.00000000E+00  4.10744852E-01  0.00000000E+00  0.00000000E+00
  0.00000000E+00  5.13902397E-01  0.00000000E+00  0.00000000E+00  0.00000000E+00
  0.00000000E+00  0.00000000E+00  0.00000000E+00  0.00000000E+00  0.00000000E+00
 -3.78393872E-02 -6.01605350E-02  0.00000000E+00  0.00000000E+00 -9.59195862E-02
  1.38178732E-01  0.00000000E+00  0.00000000E+00 -1.47526109E-01  8.50459648E-01
  0.00000000E+00  0.00000000E+00 -2.34905125E-01 -3.99676257E-02 -4.12937617E-04
 -8.01502818E-01 -3.99676257E-02 -4.12937617E-04 -8.01502818E-01  0.00000000E+00
  0.00000000E+00  0.00000000E+00 -1.51888660E-01  0.00000000E+00  0.00000000E+00
  0.00000000E+00 -1.82615095E-01  0.00000000E+00  0.00000000E+00  0.00000000E+00
 -5.09223748E-01  0.00000000E+00  2.07646443E-02 -8.61287761E-02  1.52251471E+00
 -2.07646443E-02  8.61287761E-02 -1.52251471E+00  0.00000000E+00  0.00000000E+00
  0.00000000E+00 -1.39415909E-01  0.00000000E+00  0.00000000E+00  0.00000000E+00
 -2.03738576E-01  0.00000000E+00  0.00000000E+00  0.00000000E+00 -1.02424356E+00
  0.00000000E+00  1.09037257E-01  1.41395610E+00 -8.19728015E-01 -1.09037257E-01
 -1.41395610E+00  8.19728015E-01  3.59155505E-02  6.08074661E-02  0.00000000E+00
  0.00000000E+00  1.26945982E-01 -1.84301376E-01  0.00000000E+00  0.00000000E+00
  2.13609954E-01 -1.08331350E+00  0.00000000E+00  0.00000000E+00  8.79528889E-01
  9.26412108E-02  1.66153432E+00 -6.66060875E-01  9.26412108E-02  1.66153432E+00
 -6.66060875E-01  0.00000000E+00  0.00000000E+00 -2.68848302E-01  0.00000000E+00
  0.00000000E+00  0.00000000E+00 -8.20660512E-01  0.00000000E+00  0.00000000E+00
  0.00000000E+00  1.11780692E+00  0.00000000E+00  0.00000000E+00  0.00000000E+00
  0.00000000E+00  0.00000000E+00  0.00000000E+00  0.00000000E+00  0.00000000E+00
  2.70983835E-02  4.68144466E-02  0.00000000E+00  0.00000000E+00 -2.46133532E-01
 -1.88649895E-01  0.00000000E+00  0.00000000E+00 -8.02581505E-01 -3.84237867E-01
  0.00000000E+00  0.00000000E+00  1.43003677E+00  3.82257463E-02  4.16809869E-01
  3.01223582E-02  3.82257463E-02  4.16809869E-01  3.01223582E-02  0.00000000E+00
  0.00000000E+00  0.00000000E+00 -2.57974640E-01  0.00000000E+00  0.00000000E+00
  0.00000000E+00 -8.64496458E-01  0.00000000E+00  0.00000000E+00  0.00000000E+00
  1.74667070E+00  0.00000000E+00 -6.90991208E-03 -2.52963938E-01 -7.58473163E-01
  6.90991208E-03  2.52963938E-01  7.58473163E-01  1.21855743E-01  2.43529917E-01
  0.00000000E+00  0.00000000E+00  4.75810271E-02 -1.80905894E+00  0.00000000E+00
  0.00000000E+00  1.35011475E-01  2.96106733E+00  0.00000000E+00  0.00000000E+00
 -8.54991331E-01  1.27433279E-02 -7.77654191E-01 -3.16823464E-01  1.27433279E-02
 -7.77654191E-01 -3.16823464E-01 -8.36577653E-03 -6.12672276E-03  0.00000000E+00
  0.00000000E+00 -1.63956685E-01 -1.28581797E-01  0.00000000E+00  0.00000000E+00
  7.09353980E-03 -4.39580979E-01  0.00000000E+00  0.00000000E+00  3.63671832E-01
 -1.08978271E+00  1.60762267E+00 -5.07988808E-01 -1.08978271E+00  1.60762267E+00
 -5.07988808E-01  0.00000000E+00  0.00000000E+00  0.00000000E+00  1.80483764E-01
  0.00000000E+00  0.00000000E+00  0.00000000E+00 -6.77573094E-02  0.00000000E+00
  0.00000000E+00  0.00000000E+00 -2.78482289E-01  0.00000000E+00 -1.10406778E+00
  1.66994580E+00 -8.25301276E-01  1.10406778E+00 -1.66994580E+00  8.25301276E-01
  0.00000000E+00  0.00000000E+00 -1.26259131E+00  0.00000000E+00  0.00000000E+00
  0.00000000E+00  1.38910489E+00  0.00000000E+00  0.00000000E+00  0.00000000E+00
 -5.38724686E-01  0.00000000E+00  0.00000000E+00  0.00000000E+00  0.00000000E+00
  0.00000000E+00  0.00000000E+00  0.00000000E+00  0.00000000E+00  5.85662089E-03
  1.20620341E-02  0.00000000E+00  0.00000000E+00 -1.26323751E+00 -8.42554438E-02
  0.00000000E+00  0.00000000E+00  1.43507990E+00  3.46812412E-01  0.00000000E+00
  0.00000000E+00 -7.06560751E-01  2.40543017E-01 -3.72422314E-01  2.25134416E-02
  2.40543017E-01 -3.72422314E-01  2.25134416E-02  0.00000000E+00  0.00000000E+00
  0.00000000E+00 -1.27318431E+00  0.00000000E+00  0.00000000E+00  0.00000000E+00
  1.50464431E+00  0.00000000E+00  0.00000000E+00  0.00000000E+00 -8.34789458E-01
  0.00000000E+00 -2.72044930E-01  3.29449609E-01  1.68162758E-01  2.72044930E-01
 -3.29449609E-01 -1.68162758E-01 -2.24592097E+00  2.32996772E+00  0.00000000E+00
  0.00000000E+00 -4.78638592E-03 -2.48433216E-01  0.00000000E+00  0.00000000E+00
  1.49540526E-02  2.48905035E-01  0.00000000E+00  0.00000000E+00 -5.28353960E-02
  6.08357399E-03 -4.43692185E-02 -3.11424564E-02  6.08357399E-03 -4.43692185E-02
 -3.11424564E-02
Beta MO coefficients                       R   N=         361
  5.51196621E-01  4.70024479E-01  0.00000000E+00  0.00000000E+00 -1.52129901E-03
  1.22369660E-02  0.00000000E+00  0.00000000E+00  2.04018378E-04 -5.99170230E-03
  0.00000000E+00  0.00000000E+00  9.27720793E-04 -1.03210541E-04  9.05329244E-04
  7.33259409E-04 -1.03210541E-04  9.05329244E-04  7.33259409E-04 -1.15254019E-01
 -1.85000918E-01  0.00000000E+00  0.00000000E+00 -5.22251873E-02  5.34467942E-01
  0.00000000E+00  0.00000000E+00 -9.98120534E-02  4.19815144E-01  0.00000000E+00
  0.00000000E+00 -5.28541162E-02  1.04848164E-01  4.14498579E-02  7.54252941E-03
  1.04848164E-01  4.14498579E-02  7.54252941E-03  0.00000000E+00  0.00000000E+00
  0.00000000E+00  2.35002990E-01  0.00000000E+00  0.00000000E+00  0.00000000E+00
  3.56594248E-01  0.00000000E+00  0.00000000E+00  0.00000000E+00  2.31625776E-01
  0.00000000E+00  1.61255896E-01  1.66251732E-01  1.10042892E-01 -1.61255896E-01
 -1.66251732E-01 -1.10042892E-01 -4.42391234E-02 -7.14889560E-02  0.00000000E+00
  0.00000000E+00  2.59186538E-01  2.08469587E-01  0.00000000E+00  0.00000000E+00
  3.55479231E-01  3.22640956E-01  0.00000000E+00  0.00000000E+00  3.94932356E-01
 -9.00530822E-02 -1.00318537E-01 -4.64469396E-02 -9.00530822E-02 -1.00318537E-01
 -4.64469396E-02  0.00000000E+00  0.00000000E+00  3.00377512E-01  0.00000000E+00
  0.00000000E+00  0.00000000E+00  4.10281483E-01  0.00000000E+00  0.00000000E+00
  0.00000000E+00  5.15132710E-01  0.00000000E+00  0.00000000E+00  0.00000000E+00
  0.00000000E+00  0.00000000E+00  0.00000000E+00  0.00000000E+00  0.00000000E+00
 -3.83328438E-02 -6.09665673E-02  0.00000000E+00  0.00000000E+00 -9.02771303E-02
  1.41470498E-01  0.00000000E+00  0.00000000E+00 -1.33932179E-01  8.35460673E-01
  0.00000000E+00  0.00000000E+00 -2.32003744E-01 -4.04809524E-02  2.86759350E-02
 -8.14749964E-01 -4.04809524E-02  2.86759350E-02 -8.14749964E-01  0.00000000E+00
  0.00000000E+00  0.00000000E+00 -1.48091354E-01  0.00000000E+00  0.00000000E+00
  0.00000000E+00 -1.78431491E-01  0.00000000E+00  0.00000000E+00  0.00000000E+00
 -4.92765409E-01  0.00000000E+00  2.73683005E-02 -9.48221847E-02  1.52769111E+00
 -2.73683005E-02  9.48221847E-02 -1.52769111E+00  0.00000000E+00  0.00000000E+00
  0.00000000E+00 -1.39744922E-01  0.00000000E+00  0.00000000E+00  0.00000000E+00
 -2.03136999E-01  0.00000000E+00  0.00000000E+00  0.00000000E+00 -1.02378666E+00
  0.00000000E+00  1.13873189E-01  1.40790193E+00 -8.10715884E-01 -1.13873189E-01
 -1.40790193E+00  8.10715884E-01  3.65640818E-02  6.15299116E-02  0.00000000E+00
  0.00000000E+00  1.27270741E-01 -1.79513987E-01  0.00000000E+00  0.00000000E+00
  2.11165817E-01 -1.11857818E+00  0.00000000E+00  0.00000000E+00  9.02336618E-01
  9.59846052E-02  1.66396068E+00 -6.47934953E-01  9.59846052E-02  1.66396068E+00
 -6.47934953E-01  0.00000000E+00  0.00000000E+00 -2.69903568E-01  0.00000000E+00
  0.00000000E+00  0.00000000E+00 -8.20474462E-01  0.00000000E+00  0.00000000E+00
  0.00000000E+00  1.11684867E+00  0.00000000E+00  0.00000000E+00  0.00000000E+00
  0.00000000E+00  0.00000000E+00  0.00000000E+00  0.00000000E+00  0.00000000E+00
  2.73774935E-02  4.78652162E-02  0.00000000E+00  0.00000000E+00 -2.47776987E-01
 -2.05581019E-01  0.00000000E+00  0.00000000E+00 -8.05438845E-01 -3.24954881E-01
  0.00000000E+00  0.00000000E+00  1.40725923E+00  3.95324333E-02  3.89697106E-01
  2.39500615E-02  3.95324333E-02  3.89697106E-01  2.39500615E-02  0.00000000E+00
  0.00000000E+00  0.00000000E+00 -2.58288700E-01  0.00000000E+00  0.00000000E+00
  0.00000000E+00 -8.63016897E-01  0.00000000E+00  0.00000000E+00  0.00000000E+00
  1.74817479E+00  0.00000000E+00 -7.49245437E-03 -2.52536561E-01 -7.64569210E-01
  7.49245437E-03  2.52536561E-01  7.64569210E-01  1.22015032E-01  2.43768894E-01
  0.00000000E+00  0.00000000E+00  5.10087534E-02 -1.81007229E+00  0.00000000E+00
  0.00000000E+00  1.50803585E-01  2.95698187E+00  0.00000000E+00  0.00000000E+00
 -8.63542213E-01  5.39110496E-03 -7.64532302E-01 -3.24841848E-01  5.39110496E-03
 -7.64532302E-01 -3.24841848E-01 -8.99870862E-03 -7.39891894E-03  0.00000000E+00
  0.00000000E+00 -1.64370934E-01 -1.18271731E-01  0.00000000E+00  0.00000000E+00
  4.45385662E-03 -4.62553851E-01  0.00000000E+00  0.00000000E+00  3.73665925E-01
 -1.08914895E+00  1.61802871E+00 -5.06335115E-01 -1.08914895E+00  1.61802871E+00
 -5.06335115E-01  0.00000000E+00  0.00000000E+00  0.00000000E+00  1.80119281E-01
  0.00000000E+00  0.00000000E+00  0.00000000E+00 -6.85014646E-02  0.00000000E+00
  0.00000000E+00  0.00000000E+00 -2.83763638E-01  0.00000000E+00 -1.10321209E+00
  1.67525416E+00 -8.22776348E-01  1.10321209E+00 -1.67525416E+00  8.22776348E-01
  0.00000000E+00  0.00000000E+00 -1.26258388E+00  0.00000000E+00  0.00000000E+00
  0.00000000E+00  1.38935171E+00  0.00000000E+00  0.00000000E+00  0.00000000E+00
 -5.39536482E-01  0.00000000E+00  0.00000000E+00  0.00000000E+00  0.00000000E+00
  0.00000000E+00  0.00000000E+00  0.00000000E+00  0.00000000E+00  5.76944744E-03
  1.16231383E-02  0.00000000E+00  0.00000000E+00 -1.26370697E+00 -8.20532790E-02
  0.00000000E+00  0.00000000E+00  1.43430027E+00  3.44151207E-01  0.00000000E+00
  0.00000000E+00 -7.06226058E-01  2.40300881E-01 -3.72031853E-01  2.31259125E-02
  2.40300881E-01 -3.72031853E-01  2.31259125E-02  0.00000000E+00  0.00000000E+00
  0.00000000E+00 -1.27312714E+00  0.00000000E+00  0.00000000E+00  0.00000000E+00
  1.50499976E+00  0.00000000E+00  0.00000000E+00  0.00000000E+00 -8.36223001E-01
  0.00000000E+00 -2.72233382E-01  3.29854384E-01  1.68793591E-01  2.72233382E-01
 -3.29854384E-01 -1.68793591E-01 -2.24593585E+00  2.32995713E+00  0.00000000E+00
  0.00000000E+00 -4.82688907E-03 -2.48455062E-01  0.00000000E+00  0.00000000E+00
  1.50300653E-02  2.48938273E-01  0.00000000E+00  0.00000000E+00 -5.28701944E-02
  6.09547292E-03 -4.43880004E-02 -3.11491270E-02  6.09547292E-03 -4.43880004E-02
 -3.11491270E-02
Orthonormal basis                          R   N=         361
  5.37386726E-02  5.65180013E-02  0.00000000E+00  0.00000000E+00 -2.92016781E-02
  1.43909503E-01  0.00000000E+00  0.00000000E+00 -6.66199143E-02  1.94854394E-01
  0.00000000E+00  0.00000000E+00 -9.62947981E-02  1.09599811E-01  1.74462390E-01
  1.79414238E-01  1.09599811E-01  1.74462390E-01  1.79414238E-01  3.01269796E-01
  3.06769028E-01  0.00000000E+00  0.00000000E+00  2.03533546E-01  2.09491915E-01
  0.00000000E+00  0.00000000E+00  2.89116837E-01  1.17942710E-01  0.00000000E+00
  0.00000000E+00  2.60330959E-01 -8.74490162E-02 -5.02579889E-02  8.93692265E-04
 -8.74490162E-02 -5.02579889E-02  8.93692265E-04  3.53919046E-01  3.53047217E-01
  0.00000000E+00  0.00000000E+00 -2.90931681E-01  3.28497228E-02  0.00000000E+00
  0.00000000E+00 -3.32840946E-01 -1.38489419E-01  0.00000000E+00  0.00000000E+00
 -2.08470400E-01  1.64102177E-03 -4.75619436E-02 -1.42750914E-01  1.64102177E-03
 -4.75619436E-02 -1.42750914E-01  1.67696739E-01  1.45023656E-01  0.00000000E+00
  0.00000000E+00  6.82143832E-01 -3.12643821E-01  0.00000000E+00  0.00000000E+00
  1.34988450E-01 -2.88740789E-01  0.00000000E+00  0.00000000E+00 -4.73171985E-01
  2.34557998E-01  8.99782833E-02 -4.29604517E-02  2.34557998E-01  8.99782833E-02
 -4.29604517E-02  1.96230450E-01  1.45850902E-01  0.00000000E+00  0.00000000E+00
 -1.34673372E-01 -6.25284569E-01  0.00000000E+00  0.00000000E+00  5.80790153E-02
 -2.08239827E-01  0.00000000E+00  0.00000000E+00 -5.56805430E-02 -4.40225556E-01
  1.17267242E-02  5.53893572E-01 -4.40225556E-01  1.17267242E-02  5.53893572E-01
  2.10088904E-01  1.24134572E-01  0.00000000E+00  0.00000000E+00 -4.29031354E-01
 -6.59754121E-01  0.00000000E+00  0.00000000E+00  2.42602066E-01 -7.44153181E-02
  0.00000000E+00  0.00000000E+00  6.77214012E-01  6.33440689E-01  2.75761702E-02
  3.20855644E-02  6.33440689E-01  2.75761702E-02  3.20855644E-02 -8.00647889E-02
  4.41825929E-03  0.00000000E+00  0.00000000E+00 -9.76482461E-01  2.78373608E-01
  0.00000000E+00  0.00000000E+00  1.55802093E+00 -3.28134411E-01  0.00000000E+00
  0.00000000E+00 -8.79981594E-01 -2.20859617E-02  2.29290317E-01 -1.57987758E-01
 -2.20859617E-02  2.29290317E-01 -1.57987758E-01  1.02077329E+00 -8.20409453E-01
  0.00000000E+00  0.00000000E+00 -7.66884689E-04 -1.09108786E+00  0.00000000E+00
  0.00000000E+00  5.84566024E-02  1.41338680E+00  0.00000000E+00  0.00000000E+00
 -6.20843295E-02 -5.45992652E-01  8.80214538E-01 -8.81835020E-01 -5.45992652E-01
  8.80214538E-01 -8.81835020E-01 -1.99216891E+00  2.16234539E+00  0.00000000E+00
  0.00000000E+00  3.00758699E-02 -7.20641680E-01  0.00000000E+00  0.00000000E+00
 -4.06229285E-02  5.74563543E-01  0.00000000E+00  0.00000000E+00  1.48390848E-01
 -2.88222804E-01  6.22317279E-01 -4.59568671E-01 -2.88222804E-01  6.22317279E-01
 -4.59568671E-01  1.87196527E-01 -3.60388588E-01  0.00000000E+00  0.00000000E+00
  1.82699040E-01  1.00280267E+00  0.00000000E+00  0.00000000E+00 -4.64796720E-01
 -2.97228951E+00  0.00000000E+00  0.00000000E+00  1.66964245E+00 -4.73476554E-01
  2.23993055E+00 -2.71643789E-01 -4.73476554E-01  2.23993055E+00 -2.71643789E-01
  0.00000000E+00  0.00000000E+00  3.72167624E-01  0.00000000E+00  0.00000000E+00
  0.00000000E+00  4.73676466E-01  0.00000000E+00  0.00000000E+00  0.00000000E+00
  3.77430624E-01  0.00000000E+00  0.00000000E+00  0.00000000E+00  0.00000000E+00
  0.00000000E+00  0.00000000E+00  0.00000000E+00  0.00000000E+00  0.00000000E+00
  0.00000000E+00  7.98375622E-01  0.00000000E+00  0.00000000E+00  0.00000000E+00
 -5.91536619E-03  0.00000000E+00  0.00000000E+00  0.00000000E+00 -7.79819043E-01
  0.00000000E+00  0.00000000E+00  0.00000000E+00  0.00000000E+00  0.00000000E+00
  0.00000000E+00  0.00000000E+00  0.00000000E+00  0.00000000E+00  0.00000000E+00
 -9.90595912E-01  0.00000000E+00  0.00000000E+00  0.00000000E+00  1.59605859E+00
  0.00000000E+00  0.00000000E+00  0.00000000E+00 -1.02627514E+00  0.00000000E+00
  0.00000000E+00  0.00000000E+00  0.00000000E+00  0.00000000E+00  0.00000000E+00
  0.00000000E+00  0.00000000E+00  0.00000000E+00  0.00000000E+00  0.00000000E+00
  1.56947626E-01  0.00000000E+00  0.00000000E+00  0.00000000E+00  2.77493003E-01
  0.00000000E+00  0.00000000E+00  0.00000000E+00  3.14613276E-01  0.00000000E+00
  1.82475689E-01  1.85803430E-01  8.92566420E-02 -1.82475689E-01 -1.85803430E-01
 -8.92566420E-02  0.00000000E+00  0.00000000E+00  0.00000000E+00  6.81606173E-01
  0.00000000E+00  0.00000000E+00  0.00000000E+00  3.88532865E-01  0.00000000E+00
  0.00000000E+00  0.00000000E+00 -1.53140013E-01  0.00000000E+00 -2.12092995E-01
 -1.85184074E-01 -1.14234848E-01  2.12092995E-01  1.85184074E-01  1.14234848E-01
  0.00000000E+00  0.00000000E+00  0.00000000E+00  2.28899044E-01  0.00000000E+00
  0.00000000E+00  0.00000000E+00 -8.23620487E-02  0.00000000E+00  0.00000000E+00
  0.00000000E+00 -6.69038471E-01  0.00000000E+00  7.73663467E-01 -6.64935759E-02
 -3.37352841E-01 -7.73663467E-01  6.64935759E-02  3.37352841E-01  0.00000000E+00
  0.00000000E+00  0.00000000E+00 -9.64626003E-01  0.00000000E+00  0.00000000E+00
  0.00000000E+00  1.13343027E+00  0.00000000E+00  0.00000000E+00  0.00000000E+00
  1.85395491E-01  0.00000000E+00  2.46196178E-02 -3.70306441E-01 -5.20004111E-01
 -2.46196178E-02  3.70306441E-01  5.20004111E-01  0.00000000E+00  0.00000000E+00
  0.00000000E+00  5.80184871E-01  0.00000000E+00  0.00000000E+00  0.00000000E+00
 -1.29615928E+00  0.00000000E+00  0.00000000E+00  0.00000000E+00  1.97562444E+00
  0.00000000E+00  1.01271501E-01 -4.31094292E-01 -1.28675444E+00 -1.01271501E-01
  4.31094292E-01  1.28675444E+00  0.00000000E+00  0.00000000E+00  0.00000000E+00
 -8.92339199E-02  0.00000000E+00  0.00000000E+00  0.00000000E+00  1.23854987E-01
  0.00000000E+00  0.00000000E+00  0.00000000E+00 -8.20368168E-01  0.00000000E+00
 -8.02038433E-01  2.14514970E+00 -1.49407614E+00  8.02038433E-01 -2.14514970E+00
  1.49407614E+00
Total SCF Density                          R   N=         190
  6.39763900E-01  5.69634724E-01  5.24496766E-01  0.00000000E+00  0.00000000E+00
  1.81003061E-01  0.00000000E+00  0.00000000E+00 -5.77778983E-34  1.09290663E-01
 -8.39825944E-03 -1.23730967E-02  0.00000000E+00  2.82179399E-33  1.50519785E-01
 -1.34388250E-01 -2.26107256E-01  0.00000000E+00  6.34740635E-34  3.38582561E-02
  6.84244524E-01  0.00000000E+00  0.00000000E+00  2.46993157E-01 -1.15555797E-33
  7.61106426E-34  0.00000000E+00  3.37042228E-01  0.00000000E+00  0.00000000E+00
 -1.15555797E-33  1.65684894E-01  3.10609425E-33  0.00000000E+00 -1.54074396E-33
  2.51178895E-01 -1.67175540E-03 -3.08359220E-03  0.00000000E+00  3.94777549E-33
  2.10581750E-01  1.30841867E-02  0.00000000E+00  5.55658356E-33  2.96398590E-01
 -1.64090288E-01 -2.58216596E-01  0.00000000E+00  8.65843991E-34  4.61857426E-02