[Molden Format]
[Atoms] Angs
O 1 8 -0.000000 0.000000 0.116400
H 2 1 0.000000 0.751000 -0.465600
H 3 1 -0.000000 -0.751000 -0.465600
[GTO]
   1 0
 S 6 1.0
    8588.500000       0.001895
    1297.230000       0.014386
     299.296000       0.070732
      87.377100       0.240001
      25.678900       0.594797
       3.740040       0.280802
 S 3 1.0
      42.117500       0.113889
       9.628370       0.920811
       2.853320      -0.003274
 P 3 1.0
      42.117500       0.036511
       9.628370       0.237153
       2.853320       0.819702
 S 1 1.0
       0.905661       1.000000
 P 1 1.0
       0.905661       1.000000
 S 1 1.0
       0.255611       1.000000
 P 1 1.0
       0.255611       1.000000

   2 0
 S 3 1.0
      33.865000       0.025494
       5.094790       0.190373
       1.158790       0.852161
 S 1 1.0
       0.325840       1.000000
 S 1 1.0
       0.102741       1.000000

   3 0
 S 3 1.0
      33.865000       0.025494
       5.094790       0.190373
       1.158790       0.852161
 S 1 1.0
       0.325840       1.000000
 S 1 1.0
       0.102741       1.000000

[5D]
[9G]
[7F]
[MO]
 Ene= -18.796150
 Spin= Alpha
 Occup= 1.000000
 Sym= A1
     1    0.551260
     2    0.469930
     3    0.000000
     4    0.000000
     5    -0.001600
     6    0.012330
     7    0.000000
     8    0.000000
     9    0.000140
     10    -0.006040
     11    0.000000
     12    0.000000
     13    0.000970
     14    -0.000110
     15    0.000920
     16    0.000740
     17    -0.000110
     18    0.000920
     19    0.000740
 Ene= -0.724550
 Spin= Alpha
 Occup= 1.000000
 Sym= A1
     1    -0.115550
     2    -0.185780
     3    0.000000
     4    0.000000
     5    -0.059700
     6    0.541960
     7    0.000000
     8    0.000000
     9    -0.110820
     10    0.406420
     11    0.000000
     12    0.000000
     13    -0.052290
     14    0.103770
     15    0.043180
     16    0.008470
     17    0.103770
     18    0.043180
     19    0.008470
 Ene= -0.239240
 Spin= Alpha
 Occup= 1.000000
 Sym= B2
     1    0.000000
     2    0.000000
     3    0.000000
     4    0.232520
     5    0.000000
     6    0.000000
     7    0.000000
     8    0.352160
     9    0.000000
     10    0.000000
     11    0.000000
     12    0.216440
     13    0.000000
     14    0.160070
     15    0.173020
     16    0.136160
     17    -0.160070
     18    -0.173020
     19    -0.136160
 Ene= -0.084380
 Spin= Alpha
 Occup= 1.000000
 Sym= A1
     1    -0.045150
     2    -0.072570
     3    0.000000
     4    0.000000
     5    0.260470
     6    0.204970
     7    0.000000
     8    0.000000
     9    0.355000
     10    0.346710
     11    0.000000
     12    0.000000
     13    0.390240
     14    -0.086470
     15    -0.099910
     16    -0.053830
     17    -0.086470
     18    -0.099910
     19    -0.053830
 Ene= -0.009400
 Spin= Alpha
 Occup= 1.000000
 Sym= B1
     1    0.000000
     2    0.000000
     3    0.301290
     4    0.000000
     5    0.000000
     6    0.000000
     7    0.410740
     8    0.000000
     9    0.000000
     10    0.000000
     11    0.513900
     12    0.000000
     13    0.000000
     14    0.000000
     15    0.000000
     16    0.000000
     17    0.000000
     18    0.000000
     19    0.000000
 Ene= 0.199280
 Spin= Alpha
 Occup= 1.000000
 Sym= A1
     1    -0.037840
     2    -0.060160
     3    0.000000
     4    0.000000
     5    -0.095920
     6    0.138180
     7    0.000000
     8    0.000000
     9    -0.147530
     10    0.850460
     11    0.000000
     12    0.000000
     13    -0.234910
     14    -0.039970
     15    -0.000410
     16    -0.801500
     17    -0.039970
     18    -0.000410
     19    -0.801500
 Ene= 0.309640
 Spin= Alpha
 Occup= 0.000000
 Sym= B2
     1    0.000000
     2    0.000000
     3    0.000000
     4    -0.151890
     5    0.000000
     6    0.000000
     7    0.000000
     8    -0.182620
     9    0.000000
     10    0.000000
     11    0.000000
     12    -0.509220
     13    0.000000
     14    0.020760
     15    -0.086130
     16    1.522510
     17    -0.020760
     18    0.086130
     19    -1.522510
 Ene= 0.643430
 Spin= Alpha
 Occup= 0.000000
 Sym= B2
     1    0.000000
     2    0.000000
     3    0.000000
     4    -0.139420
     5    0.000000
     6    0.000000
     7    0.000000
     8    -0.203740
     9    0.000000
     10    0.000000
     11    0.000000
     12    -1.024240
     13    0.000000
     14    0.109040
     15    1.413960
     16    -0.819730
     17    -0.109040
     18    -1.413960
     19    0.819730
 Ene= 0.681910
 Spin= Alpha
 Occup= 0.000000
 Sym= A1
     1    0.035920
     2    0.060810
     3    0.000000
     4    0.000000
     5    0.126950
     6    -0.184300
     7    0.000000
     8    0.000000
     9    0.213610
     10    -1.083310
     11    0.000000
     12    0.000000
     13    0.879530
     14    0.092640
     15    1.661530
     16    -0.666060
     17    0.092640
     18    1.661530
     19    -0.666060
 Ene= 1.031220
 Spin= Alpha
 Occup= 0.000000
 Sym= B1
     1    0.000000
     2    0.000000
     3    -0.268850
     4    0.000000
     5    0.000000
     6    0.000000
     7    -0.820660
     8    0.000000
     9    0.000000
     10    0.000000
     11    1.117810
     12    0.000000
     13    0.000000
     14    0.000000
     15    0.000000
     16    0.000000
     17    0.000000
     18    0.000000
     19    0.000000
 Ene= 1.041420
 Spin= Alpha
 Occup= 0.000000
 Sym= A1
     1    0.027100
     2    0.046810
     3    0.000000
     4    0.000000
     5    -0.246130
     6    -0.188650
     7    0.000000
     8    0.000000
     9    -0.802580
     10    -0.384240
     11    0.000000
     12    0.000000
     13    1.430040
     14    0.038230
     15    0.416810
     16    0.030120
     17    0.038230
     18    0.416810
     19    0.030120
 Ene= 1.155200
 Spin= Alpha
 Occup= 0.000000
 Sym= B2
     1    0.000000
     2    0.000000
     3    0.000000
     4    -0.257970
     5    0.000000
     6    0.000000
     7    0.000000
     8    -0.864500
     9    0.000000
     10    0.000000
     11    0.000000
     12    1.746670
     13    0.000000
     14    -0.006910
     15    -0.252960
     16    -0.758470
     17    0.006910
     18    0.252960
     19    0.758470
 Ene= 1.441550
 Spin= Alpha
 Occup= 0.000000
 Sym= A1
     1    0.121860
     2    0.243530
     3    0.000000
     4    0.000000
     5    0.047580
     6    -1.809060
     7    0.000000
     8    0.000000
     9    0.135010
     10    2.961070
     11    0.000000
     12    0.000000
     13    -0.854990
     14    0.012740
     15    -0.777650
     16    -0.316820
     17    0.012740
     18    -0.777650
     19    -0.316820
 Ene= 2.425240
 Spin= Alpha
 Occup= 0.000000
 Sym= A1
     1    -0.008370
     2    -0.006130
     3    0.000000
     4    0.000000
     5    -0.163960
     6    -0.128580
     7    0.000000
     8    0.000000
     9    0.007090
     10    -0.439580
     11    0.000000
     12    0.000000
     13    0.363670
     14    -1.089780
     15    1.607620
     16    -0.507990
     17    -1.089780
     18    1.607620
     19    -0.507990
 Ene= 2.460010
 Spin= Alpha
 Occup= 0.000000
 Sym= B2
     1    0.000000
     2    0.000000
     3    0.000000
     4    0.180480
     5    0.000000
     6    0.000000
     7    0.000000
     8    -0.067760
     9    0.000000
     10    0.000000
     11    0.000000
     12    -0.278480
     13    0.000000
     14    -1.104070
     15    1.669950
     16    -0.825300
     17    1.104070
     18    -1.669950
     19    0.825300
 Ene= 5.043740
 Spin= Alpha
 Occup= 0.000000
 Sym= B1
     1    0.000000
     2    0.000000
     3    -1.262590
     4    0.000000
     5    0.000000
     6    0.000000
     7    1.389100
     8    0.000000
     9    0.000000
     10    0.000000
     11    -0.538720
     12    0.000000
     13    0.000000
     14    0.000000
     15    0.000000
     16    0.000000
     17    0.000000
     18    0.000000
     19    0.000000
 Ene= 5.154450
 Spin= Alpha
 Occup= 0.000000
 Sym= A1
     1    0.005860
     2    0.012060
     3    0.000000
     4    0.000000
     5    -1.263240
     6    -0.084260
     7    0.000000
     8    0.000000
     9    1.435080
     10    0.346810
     11    0.000000
     12    0.000000
     13    -0.706560
     14    0.240540
     15    -0.372420
     16    0.022510
     17    0.240540
     18    -0.372420
     19    0.022510
 Ene= 5.277860
 Spin= Alpha
 Occup= 0.000000
 Sym= B2
     1    0.000000
     2    0.000000
     3    0.000000
     4    -1.273180
     5    0.000000
     6    0.000000
     7    0.000000
     8    1.504640
     9    0.000000
     10    0.000000
     11    0.000000
     12    -0.834790
     13    0.000000
     14    -0.272040
     15    0.329450
     16    0.168160
     17    0.272040
     18    -0.329450
     19    -0.168160
 Ene= 50.040750
 Spin= Alpha
 Occup= 0.000000
 Sym= A1
     1    -2.245920
     2    2.329970
     3    0.000000
     4    0.000000
     5    -0.004790
     6    -0.248430
     7    0.000000
     8    0.000000
     9    0.014950
     10    0.248910
     11    0.000000
     12    0.000000
     13    -0.052840
     14    0.006080
     15    -0.044370
     16    -0.031140
     17    0.006080
     18    -0.044370
     19    -0.031140
 Ene= -18.790600
 Spin= Beta
 Occup= 1.000000
 Sym= A1
     1    0.551200
     2    0.470020
     3    0.000000
     4    0.000000
     5    -0.001520
     6    0.012240
     7    0.000000
     8    0.000000
     9    0.000200
     10    -0.005990
     11    0.000000
     12    0.000000
     13    0.000930
     14    -0.000100
     15    0.000910
     16    0.000730
     17    -0.000100
     18    0.000910
     19    0.000730
 Ene= -0.708920
 Spin= Beta
 Occup= 1.000000
 Sym= A1
     1    -0.115250
     2    -0.185000
     3    0.000000
     4    0.000000
     5    -0.052230
     6    0.534470
     7    0.000000
     8    0.000000
     9    -0.099810
     10    0.419820
     11    0.000000
     12    0.000000
     13    -0.052850
     14    0.104850
     15    0.041450
     16    0.007540
     17    0.104850
     18    0.041450
     19    0.007540
 Ene= -0.231650
 Spin= Beta
 Occup= 1.000000
 Sym= B2
     1    0.000000
     2    0.000000
     3    0.000000
     4    0.235000
     5    0.000000
     6    0.000000
     7    0.000000
     8    0.356590
     9    0.000000
     10    0.000000
     11    0.000000
     12    0.231630
     13    0.000000
     14    0.161260
     15    0.166250
     16    0.110040
     17    -0.161260
     18    -0.166250
     19    -0.110040
 Ene= -0.075700
 Spin= Beta
 Occup= 1.000000
 Sym= A1
     1    -0.044240
     2    -0.071490
     3    0.000000
     4    0.000000
     5    0.259190
     6    0.208470
     7    0.000000
     8    0.000000
     9    0.355480
     10    0.322640
     11    0.000000
     12    0.000000
     13    0.394930
     14    -0.090050
     15    -0.100320
     16    -0.046450
     17    -0.090050
     18    -0.100320
     19    -0.046450
 Ene= -0.003000
 Spin= Beta
 Occup= 1.000000
 Sym= B1
     1    0.000000
     2    0.000000
     3    0.300380
     4    0.000000
     5    0.000000
     6    0.000000
     7    0.410280
     8    0.000000
     9    0.000000
     10    0.000000
     11    0.515130
     12    0.000000
     13    0.000000
     14    0.000000
     15    0.000000
     16    0.000000
     17    0.000000
     18    0.000000
     19    0.000000
 Ene= 0.278480
 Spin= Beta
 Occup= 0.000000
 Sym= A1
     1    -0.038330
     2    -0.060970
     3    0.000000
     4    0.000000
     5    -0.090280
     6    0.141470
     7    0.000000
     8    0.000000
     9    -0.133930
     10    0.835460
     11    0.000000
     12    0.000000
     13    -0.232000
     14    -0.040480
     15    0.028680
     16    -0.814750
     17    -0.040480
     18    0.028680
     19    -0.814750
 Ene= 0.342440
 Spin= Beta
 Occup= 0.000000
 Sym= B2
     1    0.000000
     2    0.000000
     3    0.000000
     4    -0.148090
     5    0.000000
     6    0.000000
     7    0.000000
     8    -0.178430
     9    0.000000
     10    0.000000
     11    0.000000
     12    -0.492770
     13    0.000000
     14    0.027370
     15    -0.094820
     16    1.527690
     17    -0.027370
     18    0.094820
     19    -1.527690
 Ene= 0.655590
 Spin= Beta
 Occup= 0.000000
 Sym= B2
     1    0.000000
     2    0.000000
     3    0.000000
     4    -0.139740
     5    0.000000
     6    0.000000
     7    0.000000
     8    -0.203140
     9    0.000000
     10    0.000000
     11    0.000000
     12    -1.023790
     13    0.000000
     14    0.113870
     15    1.407900
     16    -0.810720
     17    -0.113870
     18    -1.407900
     19    0.810720
 Ene= 0.704010
 Spin= Beta
 Occup= 0.000000
 Sym= A1
     1    0.036560
     2    0.061530
     3    0.000000
     4    0.000000
     5    0.127270
     6    -0.179510
     7    0.000000
     8    0.000000
     9    0.211170
     10    -1.118580
     11    0.000000
     12    0.000000
     13    0.902340
     14    0.095980
     15    1.663960
     16    -0.647930
     17    0.095980
     18    1.663960
     19    -0.647930
 Ene= 1.042040
 Spin= Beta
 Occup= 0.000000
 Sym= B1
     1    0.000000
     2    0.000000
     3    -0.269900
     4    0.000000
     5    0.000000
     6    0.000000
     7    -0.820470
     8    0.000000
     9    0.000000
     10    0.000000
     11    1.116850
     12    0.000000
     13    0.000000
     14    0.000000
     15    0.000000
     16    0.000000
     17    0.000000
     18    0.000000
     19    0.000000
 Ene= 1.053660
 Spin= Beta
 Occup= 0.000000
 Sym= A1
     1    0.027380
     2    0.047870
     3    0.000000
     4    0.000000
     5    -0.247780
     6    -0.205580
     7    0.000000
     8    0.000000
     9    -0.805440
     10    -0.324950
     11    0.000000
     12    0.000000
     13    1.407260
     14    0.039530
     15    0.389700
     16    0.023950
     17    0.039530
     18    0.389700
     19    0.023950
 Ene= 1.165560
 Spin= Beta
 Occup= 0.000000
 Sym= B2
     1    0.000000
     2    0.000000
     3    0.000000
     4    -0.258290
     5    0.000000
     6    0.000000
     7    0.000000
     8    -0.863020
     9    0.000000
     10    0.000000
     11    0.000000
     12    1.748170
     13    0.000000
     14    -0.007490
     15    -0.252540
     16    -0.764570
     17    0.007490
     18    0.252540
     19    0.764570
 Ene= 1.456280
 Spin= Beta
 Occup= 0.000000
 Sym= A1
     1    0.122020
     2    0.243770
     3    0.000000
     4    0.000000
     5    0.051010
     6    -1.810070
     7    0.000000
     8    0.000000
     9    0.150800
     10    2.956980
     11    0.000000
     12    0.000000
     13    -0.863540
     14    0.005390
     15    -0.764530
     16    -0.324840
     17    0.005390
     18    -0.764530
     19    -0.324840
 Ene= 2.434520
 Spin= Beta
 Occup= 0.000000
 Sym= A1
     1    -0.009000
     2    -0.007400
     3    0.000000
     4    0.000000
     5    -0.164370
     6    -0.118270
     7    0.000000
     8    0.000000
     9    0.004450
     10    -0.462550
     11    0.000000
     12    0.000000
     13    0.373670
     14    -1.089150
     15    1.618030
     16    -0.506340
     17    -1.089150
     18    1.618030
     19    -0.506340
 Ene= 2.469940
 Spin= Beta
 Occup= 0.000000
 Sym= B2
     1    0.000000
     2    0.000000
     3    0.000000
     4    0.180120
     5    0.000000
     6    0.000000
     7    0.000000
     8    -0.068500
     9    0.000000
     10    0.000000
     11    0.000000
     12    -0.283760
     13    0.000000
     14    -1.103210
     15    1.675250
     16    -0.822780
     17    1.103210
     18    -1.675250
     19    0.822780
 Ene= 5.048650
 Spin= Beta
 Occup= 0.000000
 Sym= B1
     1    0.000000
     2    0.000000
     3    -1.262580
     4    0.000000
     5    0.000000
     6    0.000000
     7    1.389350
     8    0.000000
     9    0.000000
     10    0.000000
     11    -0.539540
     12    0.000000
     13    0.000000
     14    0.000000
     15    0.000000
     16    0.000000
     17    0.000000
     18    0.000000
     19    0.000000
 Ene= 5.166350
 Spin= Beta
 Occup= 0.000000
 Sym= A1
     1    0.005770
     2    0.011620
     3    0.000000
     4    0.000000
     5    -1.263710
     6    -0.082050
     7    0.000000
     8    0.000000
     9    1.434300
     10    0.344150
     11    0.000000
     12    0.000000
     13    -0.706230
     14    0.240300
     15    -0.372030
     16    0.023130
     17    0.240300
     18    -0.372030
     19    0.023130
 Ene= 5.280980
 Spin= Beta
 Occup= 0.000000
 Sym= B2
     1    0.000000
     2    0.000000
     3    0.000000
     4    -1.273130
     5    0.000000
     6    0.000000
     7    0.000000
     8    1.505000
     9    0.000000
     10    0.000000
     11    0.000000
     12    -0.836220
     13    0.000000
     14    -0.272230
     15    0.329850
     16    0.168790
     17    0.272230
     18    -0.329850
     19    -0.168790
 Ene= 50.047050
 Spin= Beta
 Occup= 0.000000
 Sym= A1
     1    -2.245940
     2    2.329960
     3    0.000000
     4    0.000000
     5    -0.004830
     6    -0.248460
     7    0.000000
     8    0.000000
     9    0.015030
     10    0.248940
     11    0.000000
     12    0.000000
     13    -0.052870
     14    0.006100
     15    -0.044390
     16    -0.031150
     17    0.006100
     18    -0.044390
     19    -0.031150
