Input file generated by gabedit...                                      
SP        UB3LYP                                                      6-311G              
Number of atoms                            I                3
Info1-9                                    I   N=           9
          13          12           0           0           0         111
           1          18        -502
Full Title                                 C   N=           3
Input file generated by gabedit...  
Route                                      C   N=           8
#P B3LYP/6-311G IOp(99/18=-1) # Gfinput IOP(6/7=3) Pop=npa D
ensity Test # Units(Ang,Deg)        
Charge                                     I                1
Multiplicity                               I                2
Number of electrons                        I                9
Number of alpha electrons                  I                5
Number of beta electrons                   I                4
Number of basis functions                  I               19
Number of independent functions            I               19
Number of point charges in /Mol/           I                0
Number of translation vectors              I                0
Atomic numbers                             I   N=           3
           8           1           1
Nuclear charges                            R   N=           3
  8.00000000E+00  1.00000000E+00  1.00000000E+00
Current cartesian coordinates              R   N=           9
  0.00000000E+00  1.02866426E-32  2.19964121E-01  0.00000000E+00  1.41918432E+00
 -8.79856484E-01 -1.73799953E-16 -1.41918432E+00 -8.79856484E-01
Number of symbols in /Mol/                 I                0
Int Atom Types                             I   N=           3
           0           0           0
Force Field                                I                0
Atom Types                                 C   N=           3
                                    
MM charges                                 R   N=           3
  0.00000000E+00  0.00000000E+00  0.00000000E+00
Integer atomic weights                     I   N=           3
          16           1           1
Real atomic weights                        R   N=           3
  1.59949146E+01  1.00782504E+00  1.00782504E+00
Atom fragment info                         I   N=           3
           0           0           0
Atom residue num                           I   N=           3
           0           0           0
Nuclear spins                              I   N=           3
           0           1           1
Nuclear ZEff                               R   N=           3
 -5.60000000E+00 -1.00000000E+00 -1.00000000E+00
Nuclear ZNuc                               R   N=           3
  8.00000000E+00  1.00000000E+00  1.00000000E+00
Nuclear QMom                               R   N=           3
  0.00000000E+00  0.00000000E+00  0.00000000E+00
Nuclear GFac                               R   N=           3
  0.00000000E+00  2.79284600E+00  2.79284600E+00
MicOpt                                     I   N=           3
          -1          -1          -1
Number of residues                         I                0
Number of secondary structures             I                0
SymInf integers                            I   N=          26
           2           4           1           1           1          -1
          -1           1          -1           1           1           1
          -1           1           0           0           0           0
           0           0           0           0           0           0
           0           0
RotTr to input orientation                 R   N=          12
 -3.06161700E-16  6.12323400E-17 -1.00000000E+00  1.00000000E+00 -1.22464680E-16
 -3.06161700E-16 -1.22464680E-16 -1.00000000E+00 -6.12323400E-17  0.00000000E+00
 -5.13249615E-01  0.00000000E+00
Number of contracted shells                I               10
Number of primitive shells                 I               21
Pure/Cartesian d shells                    I                0
Pure/Cartesian f shells                    I                0
Highest angular momentum                   I                1
Largest degree of contraction              I                6
Shell types                                I   N=          10
           0          -1          -1          -1           0           0
           0           0           0           0
Number of primitives per shell             I   N=          10
           6           3           1           1           3           1
           1           3           1           1
Shell to atom map                          I   N=          10
           1           1           1           1           2           2
           2           3           3           3
Primitive exponents                        R   N=          21
  8.58850000E+03  1.29723000E+03  2.99296000E+02  8.73771000E+01  2.56789000E+01
  3.74004000E+00  4.21175000E+01  9.62837000E+00  2.85332000E+00  9.05661000E-01
  2.55611000E-01  3.38650000E+01  5.09479000E+00  1.15879000E+00  3.25840000E-01
  1.02741000E-01  3.38650000E+01  5.09479000E+00  1.15879000E+00  3.25840000E-01
  1.02741000E-01
Contraction coefficients                   R   N=          21
  1.89515008E-03  1.43859006E-02  7.07320031E-02  2.40001011E-01  5.94797026E-01
  2.80802012E-01  1.13889012E-01  9.20811101E-01 -3.27447036E-03  1.00000000E+00
  1.00000000E+00  2.54938145E-02  1.90373109E-01  8.52161486E-01  1.00000000E+00
  1.00000000E+00  2.54938145E-02  1.90373109E-01  8.52161486E-01  1.00000000E+00
  1.00000000E+00
P(S=P) Contraction coefficients            R   N=          21
  0.00000000E+00  0.00000000E+00  0.00000000E+00  0.00000000E+00  0.00000000E+00
  0.00000000E+00  3.65113974E-02  2.37152983E-01  8.19701941E-01  1.00000000E+00
  1.00000000E+00  0.00000000E+00  0.00000000E+00  0.00000000E+00  0.00000000E+00
  0.00000000E+00  0.00000000E+00  0.00000000E+00  0.00000000E+00  0.00000000E+00
  0.00000000E+00
Coordinates of each shell                  R   N=          30
 -6.77816779E-34  5.42253424E-33  2.19964121E-01 -6.77816779E-34  5.42253424E-33
  2.19964121E-01 -6.77816779E-34  5.42253424E-33  2.19964121E-01 -6.77816779E-34
  5.42253424E-33  2.19964121E-01  0.00000000E+00  1.41918432E+00 -8.79856484E-01
  0.00000000E+00  1.41918432E+00 -8.79856484E-01  0.00000000E+00  1.41918432E+00
 -8.79856484E-01 -1.73799953E-16 -1.41918432E+00 -8.79856484E-01 -1.73799953E-16
 -1.41918432E+00 -8.79856484E-01 -1.73799953E-16 -1.41918432E+00 -8.79856484E-01
Num ILSW                                   I              100
ILSW                                       I   N=         100
           1           0           0           0           2           0
           0           0           0           0         402          -1
           5           0           0           0           0           0
           0           0           0           0           0           0
           1           0           0           0           0           0
           0           0      100000           0          -1           0
           0           0           0           0           0           0
           0           0           0           1           0           0
           0 -2000000000           1           0           0           0
           0           0           4          52           0           0
           0           0           5           0           0           0
           0           0           0           3           0           1
           0           0           0           0           0           0
           0           0           0           0           0           0
           0           0           0           0           0           0
           0           0           0           0           0           0
           0           0           0           0
Num RLSW                                   I               52
RLSW                                       R   N=          52
  8.00000000E-01  7.20000000E-01  1.00000000E+00  8.10000000E-01  2.00000000E-01
  0.00000000E+00  0.00000000E+00  1.00000000E+00  0.00000000E+00  0.00000000E+00
  0.00000000E+00  0.00000000E+00  1.00000000E+00  0.00000000E+00  0.00000000E+00
  0.00000000E+00  0.00000000E+00  1.00000000E+00  0.00000000E+00  0.00000000E+00
  0.00000000E+00  0.00000000E+00  1.00000000E+00  0.00000000E+00  0.00000000E+00
  0.00000000E+00  0.00000000E+00  1.00000000E+00  0.00000000E+00  0.00000000E+00
  0.00000000E+00  0.00000000E+00  1.00000000E+00  0.00000000E+00  0.00000000E+00
  0.00000000E+00  0.00000000E+00  0.00000000E+00  1.00000000E+00  1.00000000E+00
  0.00000000E+00  1.00000000E+00  0.00000000E+00  0.00000000E+00  0.00000000E+00
  0.00000000E+00  0.00000000E+00  0.00000000E+00  0.00000000E+00  0.00000000E+00
  0.00000000E+00  0.00000000E+00
MxBond                                     I                2
NBond                                      I   N=           3
           2           1           1
IBond                                      I   N=           6
           2           3           1           0           1           0
RBond                                      R   N=           6
  1.00000000E+00  1.00000000E+00  1.00000000E+00  0.00000000E+00  1.00000000E+00
  0.00000000E+00
Virial Ratio                               R      1.999007641041104E+00
SCF Energy                                 R     -7.595151399868367E+01
Total Energy                               R     -7.595151399868367E+01
S**2                                       R      7.518221921910326E-01
S**2 after annihilation                    R      7.500022139995264E-01
RMS Density                                R      8.526975805084325E-09
Job Status                                 I                1
Nuclear derivative order                   I                0
External E-field                           R   N=          35
  0.00000000E+00  0.00000000E+00  0.00000000E+00  0.00000000E+00  0.00000000E+00
  0.00000000E+00  0.00000000E+00  0.00000000E+00  0.00000000E+00  0.00000000E+00
  0.00000000E+00  0.00000000E+00  0.00000000E+00  0.00000000E+00  0.00000000E+00
  0.00000000E+00  0.00000000E+00  0.00000000E+00  0.00000000E+00  0.00000000E+00
  0.00000000E+00  0.00000000E+00  0.00000000E+00  0.00000000E+00  0.00000000E+00
  0.00000000E+00  0.00000000E+00  0.00000000E+00  0.00000000E+00  0.00000000E+00
  0.00000000E+00  0.00000000E+00  0.00000000E+00  0.00000000E+00  0.00000000E+00
IOpCl                                      I                1
IROHF                                      I                0
Alpha Orbital Energies                     R   N=          19
 -1.96938658E+01 -1.56737349E+00 -1.02684334E+00 -8.86420854E-01 -8.65675607E-01
 -2.99401807E-01 -2.13363155E-01  4.13671538E-02  6.32834402E-02  3.01199270E-01
  3.71537608E-01  4.95019058E-01  7.17056413E-01  1.73697949E+00  1.78396237E+00
  4.15094508E+00  4.33341764E+00  4.45347714E+00  4.91472717E+01
Beta Orbital Energies                      R   N=          19
 -1.96659974E+01 -1.49640264E+00 -1.00465066E+00 -8.31148035E-01 -6.23153949E-01
 -2.90244800E-01 -2.07276358E-01  4.14642903E-02  7.18042757E-02  3.81586339E-01
  3.85418067E-01  5.07794338E-01  7.55999235E-01  1.73203974E+00  1.77858131E+00
  4.27547580E+00  4.35840872E+00  4.47952531E+00  4.91756396E+01
Alpha MO coefficients                      R   N=         361
  5.50905167E-01  4.70130403E-01  0.00000000E+00  0.00000000E+00 -2.31723749E-03
  1.27956727E-02  0.00000000E+00  0.00000000E+00  4.31603271E-04 -6.22911852E-03
  0.00000000E+00  0.00000000E+00  8.61245516E-04 -1.02960697E-04  8.97135116E-04
  7.66407054E-04 -1.02960697E-04  8.97135116E-04  7.66407054E-04 -1.21348829E-01
 -1.96333839E-01  0.00000000E+00  0.00000000E+00 -6.63448118E-02  5.95020943E-01
  0.00000000E+00  0.00000000E+00 -1.26399675E-01  4.18127279E-01  0.00000000E+00
  0.00000000E+00 -7.68224840E-02  9.74049370E-02  1.23796011E-02 -1.00521393E-02
  9.74049370E-02  1.23796011E-02 -1.00521393E-02  0.00000000E+00  0.00000000E+00
  0.00000000E+00  2.67600515E-01  0.00000000E+00  0.00000000E+00  0.00000000E+00
  4.18616576E-01  0.00000000E+00  0.00000000E+00  0.00000000E+00  2.15342518E-01
  0.00000000E+00  1.58029049E-01  1.56444823E-01  1.64230533E-03 -1.58029049E-01
 -1.56444823E-01 -1.64230533E-03  0.00000000E+00  0.00000000E+00  3.34805586E-01
  0.00000000E+00  0.00000000E+00  0.00000000E+00  5.01945626E-01  0.00000000E+00
  0.00000000E+00  0.00000000E+00  3.78179069E-01  0.00000000E+00  0.00000000E+00
  0.00000000E+00  0.00000000E+00  0.00000000E+00  0.00000000E+00  0.00000000E+00
  0.00000000E+00 -4.68248663E-02 -7.67107690E-02  0.00000000E+00  0.00000000E+00
  2.89094009E-01  2.47264641E-01  0.00000000E+00  0.00000000E+00  4.24873957E-01
  2.37184595E-01  0.00000000E+00  0.00000000E+00  3.25634757E-01 -8.47571005E-02
 -8.07514444E-02 -1.30161194E-02 -8.47571005E-02 -8.07514444E-02 -1.30161194E-02
 -4.90820058E-02 -8.27185949E-02  0.00000000E+00  0.00000000E+00 -1.20996873E-01
  2.87547126E-01  0.00000000E+00  0.00000000E+00 -2.18243675E-01  8.23875528E-01
  0.00000000E+00  0.00000000E+00 -2.59124661E-01 -7.99316325E-02 -3.18442304E-01
 -5.89328134E-01 -7.99316325E-02 -3.18442304E-01 -5.89328134E-01  0.00000000E+00
  0.00000000E+00  0.00000000E+00 -2.00067226E-01  0.00000000E+00  0.00000000E+00
  0.00000000E+00 -3.11706291E-01  0.00000000E+00  0.00000000E+00  0.00000000E+00
 -5.91631002E-01  0.00000000E+00  9.38596140E-02  4.44742468E-01  9.75715869E-01
 -9.38596140E-02 -4.44742468E-01 -9.75715869E-01  0.00000000E+00  0.00000000E+00
  0.00000000E+00  8.34656196E-02  0.00000000E+00  0.00000000E+00  0.00000000E+00
  1.18076323E-01  0.00000000E+00  0.00000000E+00  0.00000000E+00  7.38891147E-01
  0.00000000E+00 -1.40549861E-01 -1.24602180E+00  1.31282022E+00  1.40549861E-01
  1.24602180E+00 -1.31282022E+00  2.14940219E-02  3.59578862E-02  0.00000000E+00
  0.00000000E+00  1.17658520E-01 -9.23509254E-02  0.00000000E+00  0.00000000E+00
  2.00066561E-01 -8.38505114E-01  0.00000000E+00  0.00000000E+00  7.10890904E-01
  1.38834702E-01  1.51049896E+00 -8.10112142E-01  1.38834702E-01  1.51049896E+00
 -8.10112142E-01  0.00000000E+00  0.00000000E+00 -2.57804290E-01  0.00000000E+00
  0.00000000E+00  0.00000000E+00 -7.35847435E-01  0.00000000E+00  0.00000000E+00
  0.00000000E+00  1.15945632E+00  0.00000000E+00  0.00000000E+00  0.00000000E+00
  0.00000000E+00  0.00000000E+00  0.00000000E+00  0.00000000E+00  0.00000000E+00
  2.38477207E-02  4.04432481E-02  0.00000000E+00  0.00000000E+00 -2.34878711E-01
 -1.44585276E-01  0.00000000E+00  0.00000000E+00 -7.30174261E-01 -5.29939545E-01
  0.00000000E+00  0.00000000E+00  1.52773534E+00  3.98871248E-02  5.31833774E-01
  2.90037832E-02  3.98871248E-02  5.31833774E-01  2.90037832E-02  0.00000000E+00
  0.00000000E+00  0.00000000E+00 -2.46961939E-01  0.00000000E+00  0.00000000E+00
  0.00000000E+00 -7.80519834E-01  0.00000000E+00  0.00000000E+00  0.00000000E+00
  1.84803383E+00  0.00000000E+00  1.39627010E-02 -3.45352875E-01 -8.77972415E-01
 -1.39627010E-02  3.45352875E-01  8.77972415E-01  1.16501044E-01  2.32889380E-01
  0.00000000E+00  0.00000000E+00  4.42707646E-02 -1.77927755E+00  0.00000000E+00
  0.00000000E+00  1.05364578E-01  3.02523399E+00  0.00000000E+00  0.00000000E+00
 -8.23696326E-01  1.22154881E-02 -7.72863659E-01 -3.75818717E-01  1.22154881E-02
 -7.72863659E-01 -3.75818717E-01 -6.55233030E-03 -2.99044256E-03  0.00000000E+00
  0.00000000E+00 -1.62545018E-01 -1.41280306E-01  0.00000000E+00  0.00000000E+00
  3.06384570E-02 -4.79427747E-01  0.00000000E+00  0.00000000E+00  3.93104518E-01
 -1.08214015E+00  1.68873335E+00 -5.49895237E-01 -1.08214015E+00  1.68873335E+00
 -5.49895237E-01  0.00000000E+00  0.00000000E+00  0.00000000E+00  1.75753410E-01
  0.00000000E+00  0.00000000E+00  0.00000000E+00 -1.04361991E-01  0.00000000E+00
  0.00000000E+00  0.00000000E+00 -2.68163996E-01  0.00000000E+00 -1.09549695E+00
  1.72807041E+00 -9.02868470E-01  1.09549695E+00 -1.72807041E+00  9.02868470E-01
  0.00000000E+00  0.00000000E+00 -1.25643735E+00  0.00000000E+00  0.00000000E+00
  0.00000000E+00  1.40655130E+00  0.00000000E+00  0.00000000E+00  0.00000000E+00
 -5.62542376E-01  0.00000000E+00  0.00000000E+00  0.00000000E+00  0.00000000E+00
  0.00000000E+00  0.00000000E+00  0.00000000E+00  0.00000000E+00  4.98536711E-03
  1.19745121E-02  0.00000000E+00  0.00000000E+00 -1.25785980E+00 -8.57125932E-02
  0.00000000E+00  0.00000000E+00  1.44852705E+00  3.67684382E-01  0.00000000E+00
  0.00000000E+00 -7.34735378E-01  2.45833077E-01 -3.90502246E-01  2.27868602E-02
  2.45833077E-01 -3.90502246E-01  2.27868602E-02  0.00000000E+00  0.00000000E+00
  0.00000000E+00 -1.26736416E+00  0.00000000E+00  0.00000000E+00  0.00000000E+00
  1.51931941E+00  0.00000000E+00  0.00000000E+00  0.00000000E+00 -8.66609748E-01
  0.00000000E+00 -2.77701401E-01  3.42836288E-01  1.78044825E-01  2.77701401E-01
 -3.42836288E-01 -1.78044825E-01 -2.24596289E+00  2.32996811E+00  0.00000000E+00
  0.00000000E+00 -4.56033925E-03 -2.48947381E-01  0.00000000E+00  0.00000000E+00
  1.46945135E-02  2.49772820E-01  0.00000000E+00  0.00000000E+00 -5.28530762E-02
  6.03227617E-03 -4.44223368E-02 -3.13493852E-02  6.03227617E-03 -4.44223368E-02
 -3.13493852E-02
Beta MO coefficients                       R   N=         361
  5.51668950E-01  4.69909982E-01  0.00000000E+00  0.00000000E+00 -2.31172025E-03
  1.11747699E-02  0.00000000E+00  0.00000000E+00  4.91560745E-04 -5.51820041E-03
  0.00000000E+00  0.00000000E+00  7.81561735E-04 -3.05563312E-05  8.49140204E-04
  6.42804314E-04 -3.05563312E-05  8.49140204E-04  6.42804314E-04 -1.17271259E-01
 -1.88837907E-01  0.00000000E+00  0.00000000E+00 -7.04441239E-02  5.65793188E-01
  0.00000000E+00  0.00000000E+00 -1.32357645E-01  4.01862139E-01  0.00000000E+00
  0.00000000E+00 -7.03808750E-02  1.08823986E-01  3.63465085E-02 -1.10674048E-02
  1.08823986E-01  3.63465085E-02 -1.10674048E-02  0.00000000E+00  0.00000000E+00
  0.00000000E+00  2.59410343E-01  0.00000000E+00  0.00000000E+00  0.00000000E+00
  4.03353604E-01  0.00000000E+00  0.00000000E+00  0.00000000E+00  2.11368738E-01
  0.00000000E+00  1.66168500E-01  1.69528190E-01  6.43749712E-03 -1.66168500E-01
 -1.69528190E-01 -6.43749712E-03 -4.97510110E-02 -8.11087820E-02  0.00000000E+00
  0.00000000E+00  2.82659236E-01  2.56826156E-01  0.00000000E+00  0.00000000E+00
  4.10095391E-01  2.57926139E-01  0.00000000E+00  0.00000000E+00  3.39153744E-01
 -8.39023783E-02 -7.78036365E-02 -1.57526047E-02 -8.39023783E-02 -7.78036365E-02
 -1.57526047E-02  0.00000000E+00  0.00000000E+00  3.03555695E-01  0.00000000E+00
  0.00000000E+00  0.00000000E+00  4.43670045E-01  0.00000000E+00  0.00000000E+00
  0.00000000E+00  4.75135641E-01  0.00000000E+00  0.00000000E+00  0.00000000E+00
  0.00000000E+00  0.00000000E+00  0.00000000E+00  0.00000000E+00  0.00000000E+00
 -4.96235531E-02 -8.28375489E-02  0.00000000E+00  0.00000000E+00 -1.20415450E-01
  2.75202324E-01  0.00000000E+00  0.00000000E+00 -2.17671776E-01  8.61466672E-01
  0.00000000E+00  0.00000000E+00 -2.67385883E-01 -7.38932119E-02 -3.11636678E-01
 -6.03957928E-01 -7.38932119E-02 -3.11636678E-01 -6.03957928E-01  0.00000000E+00
  0.00000000E+00  0.00000000E+00 -2.01636300E-01  0.00000000E+00  0.00000000E+00
  0.00000000E+00 -3.12504358E-01  0.00000000E+00  0.00000000E+00  0.00000000E+00
 -6.11311956E-01  0.00000000E+00  8.76846881E-02  4.37270909E-01  9.94199573E-01
 -8.76846881E-02 -4.37270909E-01 -9.94199573E-01  0.00000000E+00  0.00000000E+00
  0.00000000E+00  8.69500019E-02  0.00000000E+00  0.00000000E+00  0.00000000E+00
  1.23443667E-01  0.00000000E+00  0.00000000E+00  0.00000000E+00  7.49315690E-01
  0.00000000E+00 -1.40304970E-01 -1.24723784E+00  1.30288245E+00  1.40304970E-01
  1.24723784E+00 -1.30288245E+00  2.44337801E-02  4.08039323E-02  0.00000000E+00
  0.00000000E+00  1.19944377E-01 -1.11340517E-01  0.00000000E+00  0.00000000E+00
  2.05458234E-01 -8.47760961E-01  0.00000000E+00  0.00000000E+00  7.17624864E-01
  1.37598158E-01  1.51349383E+00 -8.03564872E-01  1.37598158E-01  1.51349383E+00
 -8.03564872E-01  0.00000000E+00  0.00000000E+00 -2.70500037E-01  0.00000000E+00
  0.00000000E+00  0.00000000E+00 -7.94453234E-01  0.00000000E+00  0.00000000E+00
  0.00000000E+00  1.12876072E+00  0.00000000E+00  0.00000000E+00  0.00000000E+00
  0.00000000E+00  0.00000000E+00  0.00000000E+00  0.00000000E+00  0.00000000E+00
  2.41199776E-02  4.05538066E-02  0.00000000E+00  0.00000000E+00 -2.36855618E-01
 -1.38758530E-01  0.00000000E+00  0.00000000E+00 -7.39769251E-01 -5.49004056E-01
  0.00000000E+00  0.00000000E+00  1.52677404E+00  4.07670494E-02  5.31583251E-01
  3.27130870E-02  4.07670494E-02  5.31583251E-01  3.27130870E-02  0.00000000E+00
  0.00000000E+00  0.00000000E+00 -2.48876072E-01  0.00000000E+00  0.00000000E+00
  0.00000000E+00 -7.91231094E-01  0.00000000E+00  0.00000000E+00  0.00000000E+00
  1.83921905E+00  0.00000000E+00  1.30138664E-02 -3.37617877E-01 -8.71331164E-01
 -1.30138664E-02  3.37617877E-01  8.71331164E-01  1.18121580E-01  2.35527315E-01
  0.00000000E+00  0.00000000E+00  4.35023904E-02 -1.78876387E+00  0.00000000E+00
  0.00000000E+00  1.02879968E-01  3.01029157E+00  0.00000000E+00  0.00000000E+00
 -8.14729886E-01  1.37982015E-02 -7.72296789E-01 -3.64646037E-01  1.37982015E-02
 -7.72296789E-01 -3.64646037E-01 -6.89940140E-03 -3.42900413E-03  0.00000000E+00
  0.00000000E+00 -1.62393720E-01 -1.40941574E-01  0.00000000E+00  0.00000000E+00
  2.64755054E-02 -4.74045121E-01  0.00000000E+00  0.00000000E+00  3.93044597E-01
 -1.08194727E+00  1.68795162E+00 -5.50861638E-01 -1.08194727E+00  1.68795162E+00
 -5.50861638E-01  0.00000000E+00  0.00000000E+00  0.00000000E+00  1.76152195E-01
  0.00000000E+00  0.00000000E+00  0.00000000E+00 -9.99466123E-02  0.00000000E+00
  0.00000000E+00  0.00000000E+00 -2.70192462E-01  0.00000000E+00 -1.09514648E+00
  1.72971850E+00 -9.03655617E-01  1.09514648E+00 -1.72971850E+00  9.03655617E-01
  0.00000000E+00  0.00000000E+00 -1.26169580E+00  0.00000000E+00  0.00000000E+00
  0.00000000E+00  1.39420528E+00  0.00000000E+00  0.00000000E+00  0.00000000E+00
 -5.51323534E-01  0.00000000E+00  0.00000000E+00  0.00000000E+00  0.00000000E+00
  0.00000000E+00  0.00000000E+00  0.00000000E+00  0.00000000E+00  5.02010369E-03
  1.20152820E-02  0.00000000E+00  0.00000000E+00 -1.25861469E+00 -8.59117698E-02
  0.00000000E+00  0.00000000E+00  1.44697687E+00  3.66140419E-01  0.00000000E+00
  0.00000000E+00 -7.31781118E-01  2.44538050E-01 -3.88337257E-01  2.25256243E-02
  2.44538050E-01 -3.88337257E-01  2.25256243E-02  0.00000000E+00  0.00000000E+00
  0.00000000E+00 -1.26815405E+00  0.00000000E+00  0.00000000E+00  0.00000000E+00
  1.51761305E+00  0.00000000E+00  0.00000000E+00  0.00000000E+00 -8.63092951E-01
  0.00000000E+00 -2.76518429E-01  3.41195036E-01  1.77312389E-01  2.76518429E-01
 -3.41195036E-01 -1.77312389E-01 -2.24579848E+00  2.33013125E+00  0.00000000E+00
  0.00000000E+00 -4.56007815E-03 -2.49129677E-01  0.00000000E+00  0.00000000E+00
  1.47071937E-02  2.49763843E-01  0.00000000E+00  0.00000000E+00 -5.28402048E-02
  6.05056737E-03 -4.44158165E-02 -3.13457381E-02  6.05056737E-03 -4.44158165E-02
 -3.13457381E-02
Orthonormal basis                          R   N=         361
  5.37386726E-02  5.65180013E-02  0.00000000E+00  0.00000000E+00 -2.92016781E-02
  1.43909503E-01  0.00000000E+00  0.00000000E+00 -6.66199143E-02  1.94854394E-01
  0.00000000E+00  0.00000000E+00 -9.62947981E-02  1.09599811E-01  1.74462390E-01
  1.79414238E-01  1.09599811E-01  1.74462390E-01  1.79414238E-01  3.01269796E-01
  3.06769028E-01  0.00000000E+00  0.00000000E+00  2.03533546E-01  2.09491915E-01
  0.00000000E+00  0.00000000E+00  2.89116837E-01  1.17942710E-01  0.00000000E+00
  0.00000000E+00  2.60330959E-01 -8.74490162E-02 -5.02579889E-02  8.93692265E-04
 -8.74490162E-02 -5.02579889E-02  8.93692265E-04  3.53919046E-01  3.53047217E-01
  0.00000000E+00  0.00000000E+00 -2.90931681E-01  3.28497228E-02  0.00000000E+00
  0.00000000E+00 -3.32840946E-01 -1.38489419E-01  0.00000000E+00  0.00000000E+00
 -2.08470400E-01  1.64102177E-03 -4.75619436E-02 -1.42750914E-01  1.64102177E-03
 -4.75619436E-02 -1.42750914E-01  1.67696739E-01  1.45023656E-01  0.00000000E+00
  0.00000000E+00  6.82143832E-01 -3.12643821E-01  0.00000000E+00  0.00000000E+00
  1.34988450E-01 -2.88740789E-01  0.00000000E+00  0.00000000E+00 -4.73171985E-01
  2.34557998E-01  8.99782833E-02 -4.29604517E-02  2.34557998E-01  8.99782833E-02
 -4.29604517E-02  1.96230450E-01  1.45850902E-01  0.00000000E+00  0.00000000E+00
 -1.34673372E-01 -6.25284569E-01  0.00000000E+00  0.00000000E+00  5.80790153E-02
 -2.08239827E-01  0.00000000E+00  0.00000000E+00 -5.56805430E-02 -4.40225556E-01
  1.17267242E-02  5.53893572E-01 -4.40225556E-01  1.17267242E-02  5.53893572E-01
  2.10088904E-01  1.24134572E-01  0.00000000E+00  0.00000000E+00 -4.29031354E-01
 -6.59754121E-01  0.00000000E+00  0.00000000E+00  2.42602066E-01 -7.44153181E-02
  0.00000000E+00  0.00000000E+00  6.77214012E-01  6.33440689E-01  2.75761702E-02
  3.20855644E-02  6.33440689E-01  2.75761702E-02  3.20855644E-02 -8.00647889E-02
  4.41825929E-03  0.00000000E+00  0.00000000E+00 -9.76482461E-01  2.78373608E-01
  0.00000000E+00  0.00000000E+00  1.55802093E+00 -3.28134411E-01  0.00000000E+00
  0.00000000E+00 -8.79981594E-01 -2.20859617E-02  2.29290317E-01 -1.57987758E-01
 -2.20859617E-02  2.29290317E-01 -1.57987758E-01  1.02077329E+00 -8.20409453E-01
  0.00000000E+00  0.00000000E+00 -7.66884689E-04 -1.09108786E+00  0.00000000E+00
  0.00000000E+00  5.84566024E-02  1.41338680E+00  0.00000000E+00  0.00000000E+00
 -6.20843295E-02 -5.45992652E-01  8.80214538E-01 -8.81835020E-01 -5.45992652E-01
  8.80214538E-01 -8.81835020E-01 -1.99216891E+00  2.16234539E+00  0.00000000E+00
  0.00000000E+00  3.00758699E-02 -7.20641680E-01  0.00000000E+00  0.00000000E+00
 -4.06229285E-02  5.74563543E-01  0.00000000E+00  0.00000000E+00  1.48390848E-01
 -2.88222804E-01  6.22317279E-01 -4.59568671E-01 -2.88222804E-01  6.22317279E-01
 -4.59568671E-01  1.87196527E-01 -3.60388588E-01  0.00000000E+00  0.00000000E+00
  1.82699040E-01  1.00280267E+00  0.00000000E+00  0.00000000E+00 -4.64796720E-01
 -2.97228951E+00  0.00000000E+00  0.00000000E+00  1.66964245E+00 -4.73476554E-01
  2.23993055E+00 -2.71643789E-01 -4.73476554E-01  2.23993055E+00 -2.71643789E-01
  0.00000000E+00  0.00000000E+00  3.72167624E-01  0.00000000E+00  0.00000000E+00
  0.00000000E+00  4.73676466E-01  0.00000000E+00  0.00000000E+00  0.00000000E+00
  3.77430624E-01  0.00000000E+00  0.00000000E+00  0.00000000E+00  0.00000000E+00
  0.00000000E+00  0.00000000E+00  0.00000000E+00  0.00000000E+00  0.00000000E+00
  0.00000000E+00  7.98375622E-01  0.00000000E+00  0.00000000E+00  0.00000000E+00
 -5.91536619E-03  0.00000000E+00  0.00000000E+00  0.00000000E+00 -7.79819043E-01
  0.00000000E+00  0.00000000E+00  0.00000000E+00  0.00000000E+00  0.00000000E+00
  0.00000000E+00  0.00000000E+00  0.00000000E+00  0.00000000E+00  0.00000000E+00
 -9.90595912E-01  0.00000000E+00  0.00000000E+00  0.00000000E+00  1.59605859E+00
  0.00000000E+00  0.00000000E+00  0.00000000E+00 -1.02627514E+00  0.00000000E+00
  0.00000000E+00  0.00000000E+00  0.00000000E+00  0.00000000E+00  0.00000000E+00
  0.00000000E+00  0.00000000E+00  0.00000000E+00  0.00000000E+00  0.00000000E+00
  1.56947626E-01  0.00000000E+00  0.00000000E+00  0.00000000E+00  2.77493003E-01
  0.00000000E+00  0.00000000E+00  0.00000000E+00  3.14613276E-01  0.00000000E+00
  1.82475689E-01  1.85803430E-01  8.92566420E-02 -1.82475689E-01 -1.85803430E-01
 -8.92566420E-02  0.00000000E+00  0.00000000E+00  0.00000000E+00  6.81606173E-01
  0.00000000E+00  0.00000000E+00  0.00000000E+00  3.88532865E-01  0.00000000E+00
  0.00000000E+00  0.00000000E+00 -1.53140013E-01  0.00000000E+00 -2.12092995E-01
 -1.85184074E-01 -1.14234848E-01  2.12092995E-01  1.85184074E-01  1.14234848E-01
  0.00000000E+00  0.00000000E+00  0.00000000E+00  2.28899044E-01  0.00000000E+00
  0.00000000E+00  0.00000000E+00 -8.23620487E-02  0.00000000E+00  0.00000000E+00
  0.00000000E+00 -6.69038471E-01  0.00000000E+00  7.73663467E-01 -6.64935759E-02
 -3.37352841E-01 -7.73663467E-01  6.64935759E-02  3.37352841E-01  0.00000000E+00
  0.00000000E+00  0.00000000E+00 -9.64626003E-01  0.00000000E+00  0.00000000E+00
  0.00000000E+00  1.13343027E+00  0.00000000E+00  0.00000000E+00  0.00000000E+00
  1.85395491E-01  0.00000000E+00  2.46196178E-02 -3.70306441E-01 -5.20004111E-01
 -2.46196178E-02  3.70306441E-01  5.20004111E-01  0.00000000E+00  0.00000000E+00
  0.00000000E+00  5.80184871E-01  0.00000000E+00  0.00000000E+00  0.00000000E+00
 -1.29615928E+00  0.00000000E+00  0.00000000E+00  0.00000000E+00  1.97562444E+00
  0.00000000E+00  1.01271501E-01 -4.31094292E-01 -1.28675444E+00 -1.01271501E-01
  4.31094292E-01  1.28675444E+00  0.00000000E+00  0.00000000E+00  0.00000000E+00
 -8.92339199E-02  0.00000000E+00  0.00000000E+00  0.00000000E+00  1.23854987E-01
  0.00000000E+00  0.00000000E+00  0.00000000E+00 -8.20368168E-01  0.00000000E+00
 -8.02038433E-01  2.14514970E+00 -1.49407614E+00  8.02038433E-01 -2.14514970E+00
  1.49407614E+00
Total SCF Density                          R   N=         190
  6.40980951E-01  5.71829370E-01  5.28507894E-01  0.00000000E+00  0.00000000E+00
  1.12094780E-01  0.00000000E+00  0.00000000E+00 -7.70371978E-34  1.38903762E-01
 -1.38393172E-02 -2.09502218E-02  0.00000000E+00  3.24034934E-33  1.72846312E-01
 -1.49697893E-01 -2.52197894E-01  0.00000000E+00  1.21270895E-33  6.46881699E-02
  8.01559936E-01  0.00000000E+00  0.00000000E+00  1.68054199E-01 -1.15555797E-33
  5.17856983E-34  0.00000000E+00  2.51949411E-01  0.00000000E+00  0.00000000E+00
 -1.15555797E-33  2.16656109E-01  4.06165148E-33  0.00000000E+00 -2.31111593E-33
  3.37933968E-01 -8.92817510E-03 -1.56101725E-02  0.00000000E+00  4.80773138E-33
  2.56453410E-01  6.02930374E-02  0.00000000E+00  7.16495166E-33  3.82191961E-01
 -1.28280231E-01 -2.02615582E-01  0.00000000E+00  1.60196166E-33  8.54516399E-02